14
Properties=species:S:1:pos:R:3:mp2_forces:R:3 R1=NO2 R2=NH2 R3=H R4=CN lg=Br nu=Cl mp2_energy=-94235.13159807814 pbc="F F F"
C        0.66413398      -0.06835166       0.00886305       0.01497635       0.00705756      -0.00737028
C        0.67242522       1.45415962      -0.01545114       0.03258289       0.01354472      -0.01015339
H        1.66681741       1.79866562       0.26768701       0.00005923      -0.00375178      -0.00014771
Br      -1.83057783      -0.09317232      -0.08697962      -0.00023904      -0.00644295       0.00040205
Cl       3.02029762      -0.20640620      -0.22083183      -0.00247156       0.00007547       0.00255315
H       -0.02702427       1.76796411       0.76007196       0.00070651      -0.00149867      -0.00049938
N        0.63763253      -0.90740696      -1.25810909      -0.00340682      -0.00224205      -0.00272718
O        0.65488274      -0.32274074      -2.32935425       0.00367618      -0.00163834       0.00396907
O        0.60387704      -2.11791580      -1.08680947      -0.00376928       0.00434121      -0.00134326
N        0.71134220      -0.70159144       1.26526467      -0.00039146      -0.00913787       0.00652533
H        1.49447011      -1.33956716       1.28764454      -0.00016021       0.00196665      -0.00326143
H       -0.15242988      -1.19808980       1.43161948      -0.00110052       0.00620020       0.00093746
C        0.28955566       2.13934262      -1.24563810      -0.09350984      -0.01671161       0.02173973
N       -0.02122251       2.83270011      -2.14054722       0.05304752       0.00823745      -0.01062414
13
Properties=species:S:1:pos:R:3:mp2_forces:R:3 R1=NO2 R2=H R3=CN R4=CN lg=Cl nu=Cl mp2_energy=-37734.52708080533 pbc="F F F"
C        0.53243973      -0.06802024      -0.03372381      -0.00309362      -0.00325873      -0.00542503
C        0.64737958       1.44759952      -0.13493163      -0.00543104       0.01101136      -0.00279707
H        1.69264480       1.68944005      -0.34684276      -0.00143397       0.00032827      -0.00044953
Cl      -1.76294592      -0.06385182      -0.36093143       0.00159106       0.00184527       0.00058880
Cl       2.62839637      -0.34681967       0.67124327      -0.00247908      -0.00143597       0.00309178
H        0.23005517      -0.61204989       0.83752202       0.00256160      -0.00009165       0.00036568
N        0.75379993      -0.83302742      -1.27050952       0.00277406       0.00500253      -0.00315470
O        1.08129358      -0.18255989      -2.26092399      -0.00424478      -0.00525501       0.00356921
O        0.62224490      -2.04640582      -1.20657526       0.00177165       0.00335829       0.00030282
C        0.32671579       2.01857479       1.17612563       0.01644105      -0.01746407       0.01159027
N        0.10714358       2.49936860       2.22405807      -0.00897070       0.00914833      -0.00726947
C       -0.14132559       2.11797516      -1.17852603       0.00217225      -0.00338819      -0.00289910
N       -0.61910192       2.81421662      -1.99504456      -0.00165848       0.00019958       0.00248635
19
Properties=species:S:1:pos:R:3:mp2_forces:R:3 R1=CH3 R2=CH3 R3=NH2 R4=NO2 lg=Br nu=Br mp2_energy=-151366.0138783023 pbc="F F F"
C        0.66256479      -0.07889555       0.01352218       0.00192697      -0.00015782       0.00031932
C        0.77678745       1.45351064       0.01605171       0.00168019      -0.00081486       0.00331186
H        1.80441566       1.70371687      -0.24385067      -0.00224100       0.00151315      -0.00217335
Br      -2.02045465       0.25751754       0.16509418       0.00011635      -0.00028198       0.00131931
Br       3.35163864      -0.23804311       0.01721585      -0.00185585       0.00025286       0.00303197
C        0.63015319      -0.88703220      -1.25817016       0.00426838       0.00346513      -0.01306857
H       -0.37542310      -0.88855980      -1.67531170      -0.00184141      -0.00102858       0.00889057
H        1.31070732      -0.48401877      -1.99961001       0.00072369      -0.00182978       0.00181672
H        0.92878105      -1.90844448      -1.01975792      -0.00258802       0.00079131       0.00063981
C        0.61381554      -0.84026124       1.32018076      -0.00014166      -0.00078216      -0.00175886
H        1.44512574      -1.54037179       1.34786739      -0.00112503       0.00147088       0.00103248
H        0.68695783      -0.16075764       2.16526120      -0.00111611      -0.00061199      -0.00120261
H       -0.31928647      -1.39768732       1.37568128       0.00115839       0.00068276       0.00013822
N        0.44426460       2.03348410       1.26198926      -0.00148718      -0.00215431      -0.00348339
H       -0.54772556       1.89191251       1.42769199       0.00020736       0.00204415      -0.00074669
H        0.63904280       3.02445489       1.24081226       0.00258887      -0.00096698       0.00093404
N        0.02019307       2.12280046      -1.16858992      -0.00204698       0.00134885      -0.00092019
O       -0.56114883       3.17424222      -0.92130547       0.00049647      -0.00561952      -0.00066546
O        0.17640091       1.65657267      -2.29119222       0.00127657       0.00267889       0.00258482
15
Properties=species:S:1:pos:R:3:mp2_forces:R:3 R1=NO2 R2=H R3=CH3 R4=CN lg=Br nu=Cl mp2_energy=-93799.08342661697 pbc="F F F"
C        0.51483832      -0.03855392      -0.04744044      -0.00068969       0.00986620       0.00939826
C        0.58672278       1.47246573      -0.13331705      -0.00059358       0.01339556       0.01043420
H        1.62415761       1.72861701      -0.35871037      -0.00026053      -0.00695117      -0.00367737
Br      -1.94141593      -0.22892534      -0.36007636       0.00187967      -0.00407285      -0.00896742
Cl       2.64764318      -0.27300686       0.72838367       0.00011362      -0.00695580      -0.00144632
H        0.23983003      -0.60059527       0.82175775      -0.00184898      -0.00082745      -0.00115334
N        0.79621709      -0.82767798      -1.25805411      -0.00114651       0.00141889       0.00073375
O        1.11064652      -0.19360452      -2.26417319      -0.00665610      -0.00293740       0.00133956
O        0.72336036      -2.04610072      -1.16503438       0.00461361       0.00348460       0.00074464
C        0.21605110       2.06756016       1.22672394       0.00320841      -0.00415814      -0.00306824
H       -0.82082897       1.82790984       1.46399219       0.00179934       0.00123737       0.00233342
H        0.87859612       1.65373089       1.98819940       0.00048077       0.00086789      -0.00216314
H        0.33678109       3.15279312       1.20411489      -0.00488684      -0.00070875      -0.00129086
C       -0.20236653       2.09883382      -1.19963001       0.01239622      -0.00464691      -0.01057372
N       -0.71299278       2.77778405      -2.01160593      -0.00840942       0.00098794       0.00735660
17
Properties=species:S:1:pos:R:3:mp2_forces:R:3 R1=H R2=CH3 R3=CH3 R4=NH2 lg=Br nu=Cl mp2_energy=-88307.36334171884 pbc="F F F"
C        0.55659509      -0.01589725       0.06717443      -0.00071938       0.00443096       0.00523206
C        0.63766327       1.49144778       0.05464191      -0.00861746      -0.00691335      -0.01106079
H        1.71012949       1.70298255       0.06495369      -0.00051486       0.00059272       0.00040660
Br      -2.00072481      -0.23710004      -0.08021994       0.00159205       0.00124476      -0.00432387
Cl       2.91724153      -0.48861068      -0.52458501       0.00151772       0.00010535       0.00248343
H        0.46418266      -0.51953459      -0.87534589      -0.00023820      -0.00169187       0.00130105
C        0.68746069      -0.76596966       1.36044981      -0.00175039       0.00541038       0.00122863
H        1.60783834      -0.46877405       1.86440845       0.00097558      -0.00113224      -0.00525275
H       -0.16142159      -0.55695669       2.01067690       0.00259824      -0.00382445       0.00235680
H        0.73501971      -1.83577156       1.16607172       0.00125325       0.00135522      -0.00024819
C        0.03308999       2.14930244       1.30089728       0.00374491       0.00208386       0.00384043
H       -1.03772259       1.95088819       1.35683065       0.00115384       0.00022770      -0.00220559
H        0.50998356       1.79784798       2.22049875      -0.00204912      -0.00029342      -0.00115897
H        0.19263903       3.23115653       1.23844649       0.00143920      -0.00175798       0.00057596
N        0.11943927       2.00168556      -1.21119997      -0.00547108       0.00037210       0.00963140
H        0.22957036       3.00954744      -1.22622286       0.00446267      -0.00155877      -0.00129544
H       -0.87299401       1.78861605      -1.24309640       0.00062299       0.00134903      -0.00151075
15
Properties=species:S:1:pos:R:3:mp2_forces:R:3 R1=CN R2=H R3=CH3 R4=NO2 lg=Cl nu=Cl mp2_energy=-36296.01128844493 pbc="F F F"
C        0.55873238      -0.03328719      -0.05274850       0.00897012       0.01835509       0.00083447
C        0.61914726       1.48422048      -0.11074060      -0.00608424       0.00267345      -0.00175675
H        1.62216637       1.76560796      -0.43289348       0.00148138      -0.00535154       0.00444160
Cl      -1.80039483      -0.16328588      -0.21009979      -0.00140276      -0.00404367       0.00410082
Cl       2.73069024      -0.24657688       0.62242488      -0.00172806      -0.00316254       0.00010394
H        0.31851236      -0.51692643       0.87384120      -0.00014016      -0.00133649      -0.00143765
C        0.72954393      -0.84871659      -1.22011686      -0.00271643      -0.00293129      -0.00269083
N        0.90028485      -1.54416515      -2.15441073      -0.00126049       0.00042869       0.00087960
C        0.28509877       2.09420961       1.22974675      -0.00165011      -0.00187167      -0.00220137
H       -0.74115474       1.85070393       1.50145563       0.00112628      -0.00207628      -0.00129338
H        0.97718669       1.68411003       1.96673404      -0.00033821       0.00172604      -0.00064431
H        0.39759125       3.17775950       1.19990538      -0.00088870      -0.00114447       0.00037905
N       -0.23705162       2.06242476      -1.21707302       0.00366629       0.00015182      -0.00289921
O       -1.00173267       2.98202526      -0.94413298       0.00232698      -0.00380823      -0.00077823
O       -0.01705024       1.63317658      -2.34437192      -0.00136190       0.00239109       0.00296225
13
Properties=species:S:1:pos:R:3:mp2_forces:R:3 R1=CH3 R2=H R3=CN R4=H lg=F nu=Cl mp2_energy=-20943.10522147582 pbc="F F F"
C        0.71034803      -0.05398697      -0.03796480      -0.01238790       0.00184428      -0.00574040
C        0.51626959       1.44660158      -0.05812762      -0.00572013       0.00382037      -0.00515691
H        1.40997721       1.96218121      -0.41724530       0.00211263      -0.00311341       0.00481202
F       -1.31415753      -0.12656396       0.02150110       0.00556822      -0.00357874       0.00196302
Cl       2.83871133      -0.11040722       0.38261399       0.00220228      -0.00252750       0.00033928
H        0.49737695      -0.59856426       0.85947307       0.00063095       0.00241062       0.00050376
H       -0.32921851       1.64417756      -0.71615183       0.00224636       0.00192666      -0.00089880
C        0.73317110      -0.75883496      -1.36603786      -0.00068862       0.00288478       0.00672785
H       -0.28244599      -0.73819321      -1.75353895       0.00156807      -0.00305325      -0.00109454
H        1.43020591      -0.27000385      -2.05052132      -0.00310851       0.00020164      -0.00084481
H        1.05990594      -1.79123352      -1.23818301       0.00299534       0.00215596      -0.00183816
C        0.17575606       1.97290826       1.25964046       0.00862102      -0.00747545       0.00517238
N       -0.07097009       2.44316934       2.30574206      -0.00403971       0.00450402      -0.00394468
14
Properties=species:S:1:pos:R:3:mp2_forces:R:3 R1=NO2 R2=H R3=H R4=CH3 lg=Br nu=Cl mp2_energy=-91293.26784995571 pbc="F F F"
C        0.55907691      -0.02537372      -0.08170516       0.01615213       0.00971956       0.01165145
C        0.82359912       1.44666104      -0.26615949      -0.00538702      -0.00015095      -0.00236989
H        1.82590705       1.51563694      -0.68601322      -0.00103853       0.00080282       0.00032127
Br      -1.91465953      -0.18273001      -0.37655597      -0.00009121      -0.00003578      -0.00349263
Cl       2.70358243      -0.44162600       0.76628484      -0.00214795      -0.00699922      -0.00303280
H        0.27258404      -0.52884639       0.81712730      -0.00496615      -0.00090237      -0.00187126
H        0.88650230       1.85874689       0.74444967       0.00003430       0.00051588      -0.00137340
N        0.79630340      -0.92476056      -1.22966996      -0.00098635      -0.00197575      -0.00088491
O        1.13806882      -0.39413037      -2.28748455      -0.00932785      -0.00118503       0.00096626
O        0.64844608      -2.12692804      -1.05128457       0.00640949       0.00332258       0.00160511
C       -0.11252578       2.28381561      -1.13576689      -0.00345908       0.00035925      -0.00750547
H       -0.26694658       1.81044263      -2.10390057       0.00189001       0.00089648       0.00082759
H       -1.08393579       2.42809729      -0.66960447       0.00050424      -0.00271387      -0.00115678
H        0.35589753       3.26143468      -1.29686696       0.00241399      -0.00165360       0.00631546
14
Properties=species:S:1:pos:R:3:mp2_forces:R:3 R1=NH2 R2=CN R3=CN R4=CN lg=Cl nu=Cl mp2_energy=-36187.409778995316 pbc="F F F"
C        0.64554040      -0.10139469      -0.00652470       0.01095492       0.01175922      -0.00560825
C        0.62229141       1.44205713      -0.03696597       0.00370029      -0.01184584       0.00831654
H        1.65933363       1.77287920      -0.14689770      -0.00320121       0.00487250      -0.00779336
Cl      -1.73386232      -0.08974697       0.02362471      -0.00135645      -0.00934319       0.00049994
Cl       2.96435316      -0.17626882       0.24492709      -0.00236664      -0.01559159       0.00144889
N        0.72018352      -0.75129018      -1.26544777      -0.00045312       0.02187371       0.00075702
H       -0.19751889      -1.07504007      -1.53838309       0.00293169      -0.00929093      -0.00200205
H        1.39019969      -1.50592649      -1.22768983      -0.00464016      -0.00387167       0.00235031
C        0.55794566      -0.79670368       1.25629379      -0.00135229       0.00294906      -0.00242690
N        0.50851375      -1.40842086       2.26227074       0.00031720       0.00379283       0.00087647
C        0.12031310       2.03331379       1.20372986      -0.00243978      -0.00138518      -0.00052362
N       -0.19709106       2.56648734       2.20057749       0.00026719       0.00073182      -0.00144434
C       -0.09434362       1.97017597      -1.20147272      -0.00616354       0.01373523       0.01050322
N       -0.54513843       2.50121834      -2.14673191       0.00380191      -0.00838598      -0.00495386
11
Properties=species:S:1:pos:R:3:mp2_forces:R:3 R1=H R2=H R3=NO2 R4=H lg=Br nu=Cl mp2_energy=-90226.87222321257 pbc="F F F"
C        0.63400876      -0.02377839      -0.02072824       0.02728225       0.00764051      -0.02440854
C        0.68111967       1.47377306       0.00394019       0.00233004      -0.00541775      -0.00295230
H        1.70867111       1.83629824      -0.01843144      -0.00276918       0.00442007      -0.00244514
Br      -1.80562411      -0.13552119      -0.32846615      -0.00579450      -0.00033118       0.01086013
Cl       2.92749332      -0.39932254       0.18569476      -0.00585739      -0.00149293       0.01387333
H        0.70206884      -0.52976607      -0.96325344      -0.00461973       0.00088346       0.00027861
H        0.51193228      -0.57655113       0.88963485      -0.00730077      -0.00018705      -0.00160352
H        0.10704246       1.91747806      -0.80356313      -0.00469882      -0.00249570       0.00361795
N        0.11023021       2.04723587       1.26174838       0.00480644      -0.00527244       0.00598135
O       -0.31865372       3.19727309       1.18320896       0.00159222      -0.00288363       0.00113895
O        0.17546117       1.38758099       2.29189527      -0.00497056       0.00513663      -0.00434083
16
Properties=species:S:1:pos:R:3:mp2_forces:R:3 R1=CN R2=CN R3=CH3 R4=NO2 lg=Cl nu=F mp2_energy=-29004.288378604015 pbc="F F F"
C        0.49290648      -0.06758637      -0.03848259       0.00039730       0.02404975      -0.01428700
C        0.60373898       1.46049040      -0.10156876      -0.00215865       0.00223338      -0.00000499
H        1.61121471       1.65590053      -0.46152158       0.00011575      -0.00121992       0.00285253
Cl      -1.67682507      -0.25677603      -0.33993406       0.00111111       0.00016803       0.00027153
F        2.36409414      -0.04856100       0.38224930       0.00019856      -0.00020702      -0.00062389
C        0.85101651      -0.87424234      -1.18043157      -0.00788739      -0.04805079       0.03308079
N        1.12668604      -1.56504906      -2.09137573       0.00448904       0.02733107      -0.01749229
C        0.40481907      -0.72827118       1.24471077       0.00200990      -0.00573235      -0.00236067
N        0.29985273      -1.24408744       2.29615911      -0.00051193       0.00404877       0.00051033
C        0.36250731       2.09892328       1.24276697       0.00061719      -0.00094814      -0.00146617
H       -0.63812030       1.86771242       1.60861474       0.00180714      -0.00106255       0.00029951
H        1.11113261       1.70463935       1.92964200      -0.00039619       0.00141276      -0.00089750
H        0.46969730       3.18145989       1.17179544      -0.00179394      -0.00126407      -0.00022097
N       -0.27140631       2.05597919      -1.17582464       0.00037419      -0.00006012      -0.00297908
O       -1.07877265       2.92941759      -0.87142669       0.00381859      -0.00173740      -0.00103788
O       -0.04296155       1.66857077      -2.31820272      -0.00219067       0.00103860       0.00435575
16
Properties=species:S:1:pos:R:3:mp2_forces:R:3 R1=CN R2=CN R3=CH3 R4=NH2 lg=Cl nu=F mp2_energy=-24951.43430193585 pbc="F F F"
C        0.50831321      -0.04884134      -0.03003247      -0.04381197      -0.01345986       0.01868474
C        0.55083983       1.48815279      -0.06084131      -0.00697967      -0.00026019      -0.00010499
H        1.60630267       1.69189668      -0.22828044      -0.00120035       0.00169833       0.00064884
Cl      -1.64019908      -0.34028161      -0.15879148      -0.00160724      -0.00415751      -0.00406945
F        2.47640267      -0.05862278       0.24026060      -0.00295224      -0.00412661      -0.01031378
C        0.82652700      -0.75563076      -1.24852739       0.13140842       0.06664601       0.00171987
N        1.07373616      -1.30528321      -2.25799364      -0.07289496      -0.04027636      -0.00550160
C        0.62587166      -0.75784848       1.22417815      -0.00490604      -0.00647440      -0.00216040
N        0.61285548      -1.30552425       2.26530166      -0.00038440       0.00204468       0.00078078
C        0.14437202       2.06973991       1.28861054      -0.00107868       0.00076098      -0.00250673
H       -0.87883813       1.78553325       1.54431165      -0.00104709       0.00000967      -0.00124541
H        0.81686439       1.72300713       2.07620599      -0.00108619      -0.00037485       0.00183456
H        0.20395622       3.16169147       1.23899087       0.00205466      -0.00008128      -0.00109558
N       -0.17143939       2.00120330      -1.21790748       0.00213098      -0.00040299       0.00349631
H        0.09359997       2.96982584      -1.34989108       0.00011978      -0.00238596      -0.00039300
H       -1.16947469       1.95410206      -1.05359413       0.00223500       0.00084035       0.00022583
11
Properties=species:S:1:pos:R:3:mp2_forces:R:3 R1=CN R2=H R3=CN R4=H lg=Br nu=Br mp2_energy=-147185.7298279532 pbc="F F F"
C        0.56340539      -0.04788802      -0.04932161       0.00480704       0.01735033       0.01760313
C        0.55116521       1.47368266      -0.07544583      -0.00017090       0.00683569       0.00096374
H        1.50303726       1.84028982      -0.46239470      -0.00585126       0.00579302      -0.00417802
Br      -1.90930685      -0.27734332      -0.17617077       0.00160286      -0.00676305      -0.00254298
Br       2.95745055      -0.21707754       0.59266040       0.00534324      -0.01125545      -0.00729351
H        0.42912589      -0.61431823       0.85120174      -0.00858354      -0.00108575      -0.00186511
H       -0.25468742       1.82283934      -0.72265821       0.00569334       0.00326562      -0.00246559
C        0.76751739      -0.71884432      -1.29891449       0.00349340      -0.00487038      -0.00306718
N        0.94000861      -1.21673182      -2.35283115      -0.00131223       0.00213461       0.00338954
C        0.34851709       2.03482689       1.25660149      -0.00776004      -0.02247663       0.00546009
N        0.18452688       2.52181454       2.31149315       0.00273812       0.01107199      -0.00600410
15
Properties=species:S:1:pos:R:3:mp2_forces:R:3 R1=H R2=CH3 R3=H R4=CH3 lg=Br nu=F mp2_energy=-77007.10206675404 pbc="F F F"
C        0.30129959      -0.01649774       0.12619511      -0.00154062       0.06907497       0.00846140
C        0.50117946       1.47718284       0.09611942      -0.01057809       0.00566950      -0.01560365
H        1.53228214       1.63557018       0.41632245      -0.00147809      -0.00585278       0.00606692
Br      -2.01166407      -0.12407702       0.47879499       0.00924607      -0.02292951      -0.01312756
F        2.22974261      -0.15391622      -0.75126192      -0.01020013      -0.02547698      -0.01089227
H        0.19769760      -0.54686847      -0.80070895       0.00720829       0.00297812      -0.00024615
H       -0.17447868       1.96162867       0.80703035       0.00019476      -0.00340967       0.00030631
C        0.77361868      -0.76929033       1.33502166       0.00973627      -0.01007517      -0.00847934
H        1.85954633      -0.77909711       1.24946521      -0.00139016      -0.00142661       0.01851400
H        0.44931917      -0.27377199       2.25312562       0.00507287      -0.00214351       0.00255142
H        0.39228905      -1.79095052       1.33936278      -0.00272270       0.00247998      -0.00089888
C        0.33145191       2.03834000      -1.30672160      -0.00037979      -0.01085240       0.00558381
H        1.08887561       1.56242773      -1.92885228      -0.00668329      -0.00363191       0.00355874
H       -0.66619052       1.81205214      -1.69335754      -0.00392822       0.00789958       0.00755949
H        0.46793111       3.12526784      -1.32630532       0.00744282      -0.00230361      -0.00335426
13
Properties=species:S:1:pos:R:3:mp2_forces:R:3 R1=NO2 R2=NH2 R3=H R4=H lg=Br nu=Br mp2_energy=-149233.1859417766 pbc="F F F"
C        0.67768402      -0.05462338       0.00362075       0.04293963       0.01333288       0.02865266
C        0.84653845       1.40790745       0.02092165      -0.00935689       0.01275417      -0.00349634
H        1.76644606       1.64986707      -0.50535689       0.00206882      -0.00676548       0.00392004
Br      -2.31208277       0.20845982      -0.08831432      -0.00178098      -0.01734572      -0.01583112
Br       3.65181830      -0.44444942       0.16882571      -0.00434354      -0.00542465      -0.01784043
H        0.91313805       1.75576704       1.05107771       0.00286561       0.00063427       0.00009072
H       -0.02121168       1.84916752      -0.46515613       0.00262956      -0.00050885      -0.00084032
N        0.64856539      -0.75974114      -1.30723987       0.00645385      -0.00476024      -0.00479288
O        0.76740752      -0.05638024      -2.29951430      -0.00965837      -0.00201773       0.00698884
O        0.51269457      -1.97727256      -1.27293575      -0.00517770       0.00935483      -0.00012942
N        0.55624329      -0.83388989       1.01025275      -0.03274291      -0.00012357       0.00285818
H        0.56651399      -0.47340497       1.95003838       0.00579459      -0.00048290       0.00052511
H        0.44775479      -1.82558729       0.83514030       0.00030833       0.00135298      -0.00010505
14
Properties=species:S:1:pos:R:3:mp2_forces:R:3 R1=H R2=NO2 R3=NH2 R4=CN lg=Cl nu=Br mp2_energy=-94235.21265283148 pbc="F F F"
C        0.63976642       0.03776413       0.09634780      -0.00928342      -0.01231567       0.01555735
C        0.64958663       1.58100933       0.09495644      -0.00601208       0.01170417      -0.00673744
H        1.68092223       1.88119267       0.28022798      -0.00112046      -0.00412508       0.00606208
Cl      -1.64792194      -0.23746958       0.45275914       0.00262858       0.00460721      -0.00674486
Br       2.92565348      -0.18937741      -0.70014667      -0.00098238       0.00458089      -0.00692932
H        0.41661829      -0.60856302      -0.72904668       0.00145231       0.00034432       0.00065228
N        0.96663698      -0.63997690       1.36298455       0.00837747       0.00363474       0.00784850
O        1.25119429       0.08306707       2.32014024       0.00068263      -0.00372109      -0.00701121
O        0.93501435      -1.86221864       1.37871981      -0.00275079       0.00331871       0.00072091
N       -0.17019435       2.32755297       1.03172839      -0.00356975      -0.00889832      -0.00659728
H        0.16470077       2.09556505       1.95914415       0.00013343      -0.00056430      -0.00117680
H       -1.11914422       1.97761828       0.96702092       0.00123761       0.00320231       0.00424250
C        0.32849747       1.99296996      -1.27861249       0.01598999      -0.00571807      -0.00374479
N        0.06466960       2.34743610      -2.36600357      -0.00678306       0.00395017       0.00385806
18
Properties=species:S:1:pos:R:3:mp2_forces:R:3 R1=CH3 R2=CN R3=NH2 R4=CH3 lg=F nu=Cl mp2_energy=-23512.443072433205 pbc="F F F"
C        0.69465080      -0.03249643      -0.04127058      -0.00062905       0.00366889       0.00123133
C        0.65666601       1.49473565      -0.16495567      -0.00164114      -0.00010487      -0.00051180
H        1.60677368       1.74004356      -0.66334477      -0.00124361       0.00053090       0.00114999
F       -1.33347741      -0.27615556      -0.38246312       0.00362831      -0.00025795       0.00310182
Cl       2.77202340      -0.12621908       0.65842172       0.00115209      -0.00062091      -0.00089260
C        0.92617876      -0.83834932      -1.29912071      -0.00163152      -0.00806537       0.00330846
H       -0.00359688      -0.84628980      -1.85992899       0.00214780       0.00461614      -0.00105517
H        1.74435871      -0.40074729      -1.87449931      -0.00021677       0.00087108       0.00282583
H        1.20260290      -1.85906002      -1.03467811       0.00041857       0.00095654      -0.00241826
C        0.15874334      -0.67563265       1.13799080      -0.00863877      -0.00104784      -0.00411111
N       -0.11335096      -1.22413523       2.14386540       0.00594114       0.00111627       0.00091409
N        0.57110597       2.08679847       1.16754616      -0.00351249      -0.00073908      -0.00114682
H        0.63968726       3.09411419       1.07055882       0.00224894      -0.00035527      -0.00033782
H        1.37607040       1.77583651       1.70157652       0.00030565       0.00018407      -0.00110876
C       -0.46094586       2.05667475      -1.03000889       0.00007850      -0.00093903      -0.00435354
H       -0.44254058       1.61913750      -2.02937454       0.00005026       0.00081919       0.00077973
H       -1.42083592       1.83152762      -0.57922649       0.00074480       0.00070128      -0.00030482
H       -0.30540363       3.14065712      -1.12607825       0.00079729      -0.00133403       0.00292945
13
Properties=species:S:1:pos:R:3:mp2_forces:R:3 R1=CH3 R2=H R3=H R4=CN lg=Br nu=Cl mp2_energy=-88243.61687509347 pbc="F F F"
C        0.71526825      -0.03081747      -0.07137085       0.00014436      -0.00331293      -0.00618437
C        0.65926101       1.48700183      -0.09397589       0.00725633      -0.00594280      -0.01711266
H        1.67424927       1.87844836      -0.18721738      -0.00120735       0.00105614       0.00837266
Br      -1.75865301      -0.26142010       0.44335886       0.00257528       0.00364992       0.00814447
Cl       3.06818486      -0.20310687       0.23980020      -0.00056768       0.00105075       0.00085306
H        0.73366908      -0.52586389       0.87695764       0.00106238       0.00085509      -0.00047313
H        0.22881418       1.85354440       0.83816443      -0.00327213      -0.00467194      -0.00123864
C        0.70775286      -0.78556710      -1.36974012      -0.00939982      -0.00219863      -0.00000140
H       -0.23550911      -0.63195196      -1.89246925       0.00345550       0.00050888      -0.00283203
H        1.52592966      -0.43916318      -2.00240545       0.00111084       0.00115799       0.00420365
H        0.84438547      -1.84907794      -1.17960834       0.00289531       0.00204219      -0.00023209
C       -0.11941571       2.02108050      -1.21222875      -0.01263520       0.01260229       0.01450994
N       -0.67030681       2.50863340      -2.12692510       0.00858217      -0.00679694      -0.00800944
17
Properties=species:S:1:pos:R:3:mp2_forces:R:3 R1=H R2=CH3 R3=NO2 R4=CH3 lg=F nu=Cl mp2_energy=-25059.88258712995 pbc="F F F"
C        0.65119003      -0.02664476       0.08666228       0.00852055      -0.00333676       0.00054016