11
Properties=species:S:1:pos:R:3:mp2_forces:R:3 R1=H R2=H R3=H R4=NO2 lg=F nu=Cl mp2_energy=-22926.24880330565 pbc="F F F"
C        0.71660710      -0.04557238       0.01803769       0.00596739       0.00109288       0.00625976
C        0.74775290       1.45302501      -0.02412403      -0.00440673      -0.00457567      -0.00579587
H        1.75338337       1.86936885      -0.12259533      -0.00082277       0.00190064       0.00004509
F       -1.27128172       0.26691266       0.13520087      -0.00112390      -0.00166680       0.00113491
Cl       2.74385533      -0.55272454      -0.03785788      -0.00415086       0.00094043      -0.00133035
H        0.43328612      -0.56229664      -0.87761842       0.00746854       0.00124709      -0.00297724
H        0.51078343      -0.50913295       0.96229413      -0.00813530       0.00060103      -0.00115933
H        0.22742389       1.86681259       0.83064200       0.00415888      -0.00080311       0.00078176
N        0.01262055       1.97693319      -1.21354562       0.00502077       0.00962325       0.00063825
O       -0.56060520       3.05528228      -1.07548280       0.00189070      -0.00574949      -0.00112830
O        0.11798422       1.37683194      -2.27654061      -0.00586671      -0.00261026       0.00353132
11
Properties=species:S:1:pos:R:3:mp2_forces:R:3 R1=H R2=H R3=H R4=NO2 lg=Cl nu=Cl mp2_energy=-32723.706860611775 pbc="F F F"
C        0.61399581      -0.02763513       0.03264432      -0.00075705       0.00132483      -0.00116196
C        0.67226566       1.46782560       0.00303528      -0.00407094       0.00263081      -0.00034259
H        1.69699227       1.83338010       0.05225823       0.00089997      -0.00312662      -0.00025520
Cl      -1.68220466      -0.06656059       0.40193953       0.00084610      -0.00149788      -0.00049528
Cl       2.86807049      -0.41949441      -0.30576023      -0.00133441      -0.00174740       0.00052927
H        0.43153809      -0.58088667      -0.86622657       0.00081564       0.00203702      -0.00044505
H        0.71586528      -0.52917053       0.97470043       0.00207601       0.00319619       0.00061745
H        0.07481603       1.91378554       0.79172628       0.00103068      -0.00135984      -0.00115481
N        0.12993726       2.03865997      -1.26866820      -0.00161317      -0.00043878      -0.00064438
O       -0.21716083       3.21786396      -1.21760858       0.00152045      -0.00390317      -0.00052349
O        0.12769460       1.34767216      -2.27963048       0.00058673       0.00288484       0.00387603
11
Properties=species:S:1:pos:R:3:mp2_forces:R:3 R1=H R2=H R3=H R4=NO2 lg=Cl nu=Br mp2_energy=-90226.86838117501 pbc="F F F"
C        0.60754060      -0.02219009       0.03800927      -0.01320795       0.00153102       0.00399229
C        0.63905770       1.47507556       0.01222743       0.00227156      -0.00088887       0.00393239
H        1.64967254       1.86571151       0.12263873      -0.00081004      -0.00003632      -0.00533396
Cl      -1.71259097      -0.10042982       0.42497154       0.00182660       0.00256304      -0.00551578
Br       2.98346006      -0.43614755      -0.34561201       0.00202751       0.00014870      -0.00005957
H        0.41108479      -0.57930708      -0.85582715       0.00433823       0.00043629      -0.00058034
H        0.71272418      -0.52306034       0.98073402       0.00274692       0.00039704      -0.00067027
H       -0.01008006       1.90440584       0.76915915       0.00250714      -0.00044388       0.00099785
N        0.15428344       2.04227509      -1.28460982       0.00341392      -0.00170520       0.00014066
O       -0.13892952       3.23701655      -1.26130218      -0.00229611      -0.00509278      -0.00054180
O        0.13558726       1.33209033      -2.28197897      -0.00281777       0.00309097       0.00363854
11
Properties=species:S:1:pos:R:3:mp2_forces:R:3 R1=H R2=H R3=H R4=NO2 lg=Br nu=Cl mp2_energy=-90226.87240177633 pbc="F F F"
C        0.62072095      -0.02309212       0.02948454      -0.00378899       0.00356845       0.00417677
C        0.67398951       1.47387662       0.00090734       0.01338335      -0.02964267       0.00334999
H        1.70219428       1.83108361       0.04966184      -0.00746946       0.01915916       0.00096137
Br      -1.80891659      -0.13805445       0.38527133      -0.00432451       0.00788765       0.00029359
Cl       2.90785575      -0.40070685      -0.26502061      -0.00045460      -0.00017434      -0.00261454
H        0.47239993      -0.57961827      -0.87418698       0.00076576       0.00160985       0.00023255
H        0.71934061      -0.52553829       0.97168134       0.00112577       0.00016850      -0.00142995
H        0.08206766       1.92266068       0.79270983       0.00176046       0.00194260      -0.00109634
N        0.13595958       2.04855382      -1.27091477      -0.00245310      -0.01566254      -0.00785441
O       -0.21037084       3.22787970      -1.21850838      -0.00245826      -0.00339234      -0.00009598
O        0.13656915       1.35839555      -2.28267549       0.00391358       0.01453567       0.00407695
11
Properties=species:S:1:pos:R:3:mp2_forces:R:3 R1=H R2=H R3=H R4=NO2 lg=Br nu=Br mp2_energy=-147730.04390931383 pbc="F F F"
C        0.62555717      -0.01766464       0.02983050       0.00941491       0.00305621       0.00044744
C        0.68001657       1.48065511      -0.00619948       0.00279948      -0.00690774       0.00010363
H        1.70687980       1.84572007       0.01776992      -0.00297901       0.00365939       0.00274023
Br      -1.83986730      -0.09356118       0.35897746      -0.00237052      -0.00121545       0.00152273
Br       3.02662388      -0.48226974      -0.22433848      -0.00223576       0.00027847      -0.00203461
H        0.46990070      -0.57726486      -0.87160352      -0.00355840       0.00033859       0.00188806
H        0.68301232      -0.51786215       0.97684390      -0.00193593       0.00014273      -0.00027197
H        0.10433603       1.92904243       0.79781145      -0.00093423      -0.00092815      -0.00194287
N        0.11204506       2.04786183      -1.26863808      -0.00278980      -0.00232845      -0.00806601
O       -0.29286433       3.20722072      -1.20161535       0.00336597      -0.00169363      -0.00086161
O        0.15617012       1.37356241      -2.29042834       0.00122329       0.00559802       0.00647498
10
Properties=species:S:1:pos:R:3:mp2_forces:R:3 R1=H R2=H R3=H R4=CN lg=Cl nu=Br mp2_energy=-87176.97690215924 pbc="F F F"
C        0.61282782      -0.01463444       0.02500502       0.00554049       0.00167166       0.01106250
C        0.57445316       1.49833598       0.02569447      -0.00568938       0.01985859      -0.02021768
H        1.53135832       1.89859363       0.36258101       0.00080433      -0.01524144       0.01182358
Cl      -1.67577613      -0.29245005       0.46902500       0.00284152      -0.00160687      -0.00093912
Br       2.99358223      -0.25814949      -0.48708528      -0.00213240       0.00003399      -0.00417959
H        0.42472534      -0.57978401      -0.86582667      -0.00074622       0.00017617       0.00052357
H        0.79825585      -0.52651367       0.95000255       0.00014470       0.00063262      -0.00042098
H       -0.20746026       1.84229638       0.70351208      -0.00024329      -0.00183156      -0.00073962
C        0.29842316       2.04929299      -1.29902954      -0.00126593      -0.00330379       0.00241327
N        0.08178051       2.52698269      -2.34850864       0.00074621      -0.00038938       0.00067408
10
Properties=species:S:1:pos:R:3:mp2_forces:R:3 R1=H R2=H R3=H R4=CN lg=Br nu=Cl mp2_energy=-87176.97652437275 pbc="F F F"
C        0.61621181      -0.01726005       0.02248498      -0.00338201       0.00795058      -0.02581288
C        0.59279136       1.49584841       0.02952864      -0.02134468       0.03388509      -0.00935967
H        1.55922731       1.87833864       0.35949854       0.00771294      -0.02651780       0.00160944
Br      -1.76443216      -0.35982137       0.46553027       0.01298209      -0.00499535       0.00945528
Cl       2.90353620      -0.19112012      -0.48776734       0.00490821      -0.00360719       0.01448512
H        0.46339599      -0.57575115      -0.87899584       0.00393685      -0.00053941      -0.00079670
H        0.83327618      -0.53469346       0.93775091      -0.00609693       0.00074619       0.00144191
H       -0.17693835       1.85334454       0.71457296       0.00660180       0.00058873       0.00460768
C        0.31501985       2.05543936      -1.29124983      -0.00602054      -0.00837984       0.00251309
N        0.09008181       2.53964519      -2.33598328       0.00070227       0.00086901       0.00185673
10
Properties=species:S:1:pos:R:3:mp2_forces:R:3 R1=H R2=H R3=H R4=CN lg=Br nu=Br mp2_energy=-144680.15013455247 pbc="F F F"
C        0.60016360      -0.01110871       0.02267526       0.01926502       0.00202284       0.01065892
C        0.56545395       1.50323523       0.02915432      -0.01270005       0.02392280      -0.02362694
H        1.50879197       1.89325353       0.41369222       0.00382573      -0.01835961       0.00533846
Br      -1.78850629      -0.38486182       0.53513021       0.00505112       0.00244833      -0.00676035
Br       3.00527975      -0.21815178      -0.53729418      -0.00332202       0.00017887      -0.00063800
H        0.42181730      -0.57309782      -0.87266553       0.00078761      -0.00041524       0.00025126
H        0.82683739      -0.52825056       0.93587646      -0.00849616       0.00012801       0.00118238
H       -0.24374101       1.85262463       0.67193909       0.00493133      -0.00157302       0.00581798
C        0.35664612       2.06327561      -1.30446448      -0.00894750      -0.00890604       0.00618622
N        0.17942721       2.54705169      -2.35867338      -0.00039502       0.00055307       0.00159007
12
Properties=species:S:1:pos:R:3:mp2_forces:R:3 R1=H R2=H R3=H R4=CH3 lg=F nu=F mp2_energy=-8639.847828373431 pbc="F F F"
C        0.56984721      -0.00717178       0.05748225      -0.00596566       0.00040161       0.00665624
C        0.63033986       1.49662473       0.03404457       0.00011636      -0.00130890      -0.00580613
H        1.66229023       1.80076020       0.21545778      -0.00153784      -0.00075253       0.00061559
F       -1.16011610      -0.04413828       0.62127342       0.00256022       0.00069083      -0.00039588
F        2.24871030      -0.20039328      -0.62121106       0.00098059       0.00012580       0.00111095
H        0.23350817      -0.56075220      -0.79799555      -0.00021561       0.00264624      -0.00064067
H        0.86720391      -0.54329591       0.94083181       0.00218526      -0.00060837      -0.00318757
H       -0.01138203       1.87760256       0.82994162       0.00069003       0.00045513      -0.00116873
C        0.16027340       2.02635281      -1.31299977       0.00071169      -0.00026659       0.00120566
H        0.80365505       1.61704304      -2.09515989      -0.00108516       0.00117311       0.00029275
H       -0.86779683       1.69759421      -1.48080514       0.00182468      -0.00113059      -0.00020335
H        0.19276684       3.12102389      -1.36865004      -0.00026455      -0.00142574       0.00152114
12
Properties=species:S:1:pos:R:3:mp2_forces:R:3 R1=H R2=H R3=H R4=CH3 lg=Cl nu=F mp2_energy=-18437.1530872683 pbc="F F F"
C        0.44813219      -0.00683919       0.07969970      -0.01793599       0.04370679      -0.02530586
C        0.54578243       1.49845024       0.07530845      -0.00937179       0.02416822      -0.01289765
H        1.57666610       1.73090854       0.33857434       0.00186246      -0.01729126       0.00304624
Cl      -1.50118853      -0.33470029       0.84303893       0.00968716      -0.02032422       0.00848060
F        2.29635315      -0.02692971      -0.84428222       0.00418704      -0.01706552       0.01034652
H        0.26687237      -0.52498603      -0.84133800       0.00266375       0.00034853      -0.00365939
H        0.96629902      -0.55627725       0.84471672       0.00490458      -0.00415355       0.00424758
H       -0.12788143       1.93688816       0.81624007       0.00085650       0.00060583      -0.00217915
C        0.26052629       2.04688046      -1.31532937       0.00238063      -0.00332513       0.01087123
H        0.99741033       1.60033432      -1.98197564      -0.00102315      -0.00069183       0.00416971
H       -0.74887449       1.77896641      -1.64265803      -0.00096469      -0.00407068       0.00578110
H        0.34920257       3.13855433      -1.34978495       0.00275351      -0.00190719      -0.00290094
12
Properties=species:S:1:pos:R:3:mp2_forces:R:3 R1=H R2=H R3=H R4=CH3 lg=Br nu=Br mp2_energy=-143241.14333488845 pbc="F F F"
C        0.55101806       0.02080927       0.06928463       0.01568835      -0.00050280      -0.00415071
C        0.57785142       1.52709102       0.04157791      -0.00478241      -0.00244547       0.00184520
H        1.57476821       1.85991883       0.33588835       0.00112458      -0.00018867      -0.00831081
Br      -1.86892793      -0.27238540       0.66189008      -0.00830115      -0.00059982       0.00149034
Br       2.90955088      -0.37838466      -0.67573583      -0.00205979       0.00148231       0.00214461
H        0.29270165      -0.55161734      -0.80132546      -0.00142822       0.00080471       0.00134076
H        0.79136909      -0.51631638       0.96976513      -0.00759287       0.00129467       0.00128040
H       -0.12740719       1.89868854       0.78699057       0.00549973       0.00130039       0.00296574
C        0.22330969       2.07231474      -1.33392904       0.00407765      -0.00471653       0.00049510
H        0.92830181       1.69273366      -2.07678623      -0.00004116       0.00595671      -0.00062272
H       -0.78794092       1.76269136      -1.60730845       0.00325371      -0.00172462      -0.00181606
H        0.26470524       3.16570636      -1.34810166      -0.00543842      -0.00066088       0.00333816
11
Properties=species:S:1:pos:R:3:mp2_forces:R:3 R1=H R2=H R3=H R4=NH2 lg=F nu=F mp2_energy=-9075.958164717254 pbc="F F F"
C        0.60634142       0.01372266      -0.01924212      -0.00043259       0.00204945       0.00561450
C        0.74879341       1.51324833      -0.04350700       0.00085641       0.00078694      -0.01514705
H        1.80904213       1.74609108      -0.09259763      -0.00147869      -0.00069810       0.00367908
F       -1.16963155       0.05030102      -0.06368012       0.00302825      -0.00175298      -0.00738405
F        2.45679484      -0.29485934       0.11603440      -0.00373801       0.00340164       0.00046187
H        0.65243665      -0.52254771      -0.94854647       0.00273432       0.00047515       0.00146881
H        0.57069437      -0.52103669       0.90842552      -0.00084369      -0.00041198       0.00076909
H        0.33293005       1.89612605       0.90197590       0.00498835      -0.00261615       0.00274329
N        0.05080077       2.06082698      -1.21862389      -0.02155092       0.00012377       0.00798748
H       -0.07011137       3.05981322      -1.08975590       0.01480061       0.00083306      -0.00313106
H       -0.86617073       1.62835438      -1.15724270       0.00163596      -0.00219080       0.00293803
11
Properties=species:S:1:pos:R:3:mp2_forces:R:3 R1=H R2=H R3=H R4=NH2 lg=F nu=Cl mp2_energy=-18873.341947441913 pbc="F F F"
C        0.70472580       0.03112589      -0.02607534       0.00262850      -0.00120838       0.01460632
C        0.73934701       1.54099254      -0.02064609      -0.01476308       0.00149686      -0.00328302
H        1.76462414       1.91237943      -0.01719389      -0.00090299      -0.00160349      -0.00567993
F       -1.30905377       0.14922828      -0.03536519       0.00436391      -0.00333604      -0.01090419
Cl       2.81584787      -0.49659636       0.07593869       0.00250068      -0.00097517      -0.00281959
H        0.56359158      -0.46328911      -0.96906852      -0.00051281       0.00235430      -0.00040313
H        0.48871054      -0.50891939       0.87342908      -0.00331972       0.00098308       0.00021548
H        0.24295680       1.85817523       0.90652728       0.00897946       0.00175320       0.00328247
N        0.05087315       2.01941999      -1.22413826      -0.00521980      -0.00073715       0.00603241
H       -0.08121476       3.02214196      -1.14342168       0.00478720      -0.00035559      -0.00090268
H       -0.85848836       1.56538156      -1.12674609       0.00145864       0.00162837      -0.00014414
11
Properties=species:S:1:pos:R:3:mp2_forces:R:3 R1=H R2=H R3=H R4=NH2 lg=Cl nu=F mp2_energy=-18873.09664893645 pbc="F F F"
C        0.55185588      -0.00237198      -0.00631184      -0.00526464       0.01893843       0.01285298
C        0.67201158       1.49228984      -0.02628286      -0.00240909      -0.01388854      -0.00116153
H        1.74788369       1.65191050      -0.02818717      -0.00207880       0.00373984       0.00130977
Cl      -1.55513579      -0.22872496       0.10058602      -0.00525182      -0.00763812      -0.00440591
F        2.63020814      -0.17847738       0.03672114      -0.00019535      -0.00317269      -0.01008379
H        0.69145313      -0.51981264      -0.93673023       0.00677209      -0.00323210       0.00312581
H        0.76542174      -0.52489854       0.90342338      -0.00263882      -0.00067473      -0.00020662
H        0.23355415       1.89091633       0.90121624       0.00577554       0.00330440       0.00059241
N        0.07992952       2.07129428      -1.23614984       0.01250212      -0.00164588      -0.00723488
H        0.22371122       3.07401166      -1.21524786      -0.00744858       0.00123354       0.00323061
H       -0.91897326       1.90390289      -1.19979697       0.00023735       0.00303585       0.00198114
11
Properties=species:S:1:pos:R:3:mp2_forces:R:3 R1=H R2=H R3=H R4=NH2 lg=Br nu=Br mp2_energy=-143677.14561414524 pbc="F F F"
C        0.64069003       0.03726919       0.00339227       0.00550706       0.00202246      -0.01033352
C        0.65902067       1.54186923       0.01007360       0.00473210      -0.00429358       0.00432025
H        1.69159145       1.87456624       0.11243396      -0.00290450       0.00493842      -0.00427324
Br      -1.84084911      -0.18981876       0.15335307      -0.00118007       0.00438739       0.00023396
Br       3.12399040      -0.45301871      -0.10024901      -0.00203241       0.00040669       0.00541928
H        0.59050630      -0.49029108      -0.93144267       0.00229156       0.00069519       0.00019052
H        0.68131840      -0.51950122       0.92011081      -0.00459314       0.00030985      -0.00076633
H        0.10293176       1.87586796       0.89650116       0.00080420      -0.00214339       0.00017880
N        0.13101012       2.06470071      -1.24897874       0.00353619      -0.01072741      -0.00561975
H        0.19249253       3.07578459      -1.23407514      -0.00526878       0.00027229       0.00197774
H       -0.85078256       1.81261186      -1.28787930      -0.00089222       0.00413208       0.00867229
11
Properties=species:S:1:pos:R:3:mp2_forces:R:3 R1=H R2=H R3=NO2 R4=H lg=Cl nu=Cl mp2_energy=-32723.70662237718 pbc="F F F"
C        0.62351486      -0.02831570      -0.02468094      -0.02127536       0.01028829      -0.03602740
C        0.65938187       1.46822250      -0.00587925       0.00715093       0.00097324      -0.00832393
H        1.67824924       1.84792378      -0.07000805      -0.00037111      -0.00164743       0.00611350
Cl      -1.67679006      -0.10272818      -0.35251659       0.00181263      -0.00312155       0.01825938
Cl       2.89426672      -0.38638615       0.24477755      -0.00082717      -0.00141206       0.01505774
H        0.70977400      -0.53390854      -0.96584815       0.00667506      -0.00037980       0.00207802
H        0.47177447      -0.57796297       0.88230476       0.00708999      -0.00082407       0.00055582
H        0.04658567       1.89914425      -0.79104137      -0.00044509      -0.00039618       0.00179448
N        0.12348344       2.03969055       1.26787496       0.00411911      -0.00535476       0.00071435
O       -0.25987302       3.20715008       1.20958498       0.00029324      -0.00292935       0.00308773
O        0.16338283       1.36187038       2.28711210      -0.00422224       0.00480367      -0.00330970
11
Properties=species:S:1:pos:R:3:mp2_forces:R:3 R1=H R2=H R3=NO2 R4=H lg=Cl nu=Br mp2_energy=-90226.86796497267 pbc="F F F"
C        0.61602386      -0.02294023      -0.03634594       0.01131894      -0.00020915       0.00605585
C        0.61866518       1.47442964      -0.02022611      -0.00471212       0.01045924      -0.00919049
H        1.61579997       1.88715670      -0.16539723       0.00335558      -0.01003758       0.00616923
Cl      -1.70810219      -0.15109948      -0.39508724       0.00100845      -0.00203998      -0.00075349
Br       3.00213116      -0.38224220       0.33329515      -0.00160852       0.00060993      -0.00156796
H        0.72394320      -0.52750612      -0.97693250      -0.00589182       0.00133207      -0.00061389
H        0.43926168      -0.57830146       0.86254511      -0.00313624      -0.00054309      -0.00085653
H       -0.06220909       1.88519442      -0.75965588       0.00076167       0.00097779       0.00226599
N        0.16179480       2.04174711       1.28688424      -0.00208033       0.00050260       0.00078052
O       -0.11283533       3.24113459       1.27178432      -0.00306399      -0.00436038       0.00014417
O        0.13927675       1.32712703       2.28081608       0.00404839       0.00330855      -0.00243339
11
Properties=species:S:1:pos:R:3:mp2_forces:R:3 R1=H R2=H R3=NO2 R4=H lg=Br nu=Cl mp2_energy=-90226.8722054339 pbc="F F F"
C        0.63400876      -0.02377839      -0.02072824       0.02708514       0.00771472      -0.02445743
C        0.68111967       1.47377306       0.00394019       0.00231164      -0.00544915      -0.00285164
H        1.70867111       1.83629824      -0.01843144      -0.00274937       0.00439619      -0.00245415
Br      -1.80562411      -0.13552119      -0.32846615      -0.00570570      -0.00033599       0.01087437
Cl       2.92749332      -0.39932254       0.18569476      -0.00579889      -0.00150007       0.01387658
H        0.70206884      -0.52976607      -0.96325344      -0.00458433       0.00084751       0.00023569
H        0.51193228      -0.57655113       0.88963485      -0.00727721      -0.00023883      -0.00154422
H        0.10704246       1.91747806      -0.80356313      -0.00466721      -0.00249256       0.00363317
N        0.11023021       2.04723587       1.26174838       0.00459848      -0.00444656       0.00556316
O       -0.31865372       3.19727309       1.18320896       0.00172452      -0.00340857       0.00122176
O        0.17546117       1.38758099       2.29189527      -0.00493709       0.00491332      -0.00409729
11
Properties=species:S:1:pos:R:3:mp2_forces:R:3 R1=H R2=H R3=NO2 R4=H lg=Br nu=Br mp2_energy=-147730.04392480387 pbc="F F F"
C        0.62643005      -0.01775515      -0.02961955      -0.01189561       0.00355901       0.00817731
C        0.65933305       1.48124263      -0.00423527       0.00936285      -0.01245370      -0.00920011
H        1.67935397       1.86047554      -0.06657373      -0.00400990       0.00645235       0.00315946
Br      -1.83518914      -0.14179566      -0.35059524       0.00463647       0.00288537       0.00338478
Br       3.03764307      -0.43996817       0.24251928       0.00188749       0.00032112      -0.00461784
H        0.69679967      -0.52283145      -0.97340283       0.00398055       0.00095285       0.00099390
H        0.48179392      -0.57471631       0.87504040       0.00007080       0.00081517      -0.00070593
H        0.05060375       1.91614009      -0.79112769      -0.00008170      -0.00065041       0.00041190
N        0.12520246       2.04912973       1.27234327      -0.00215906       0.00969928       0.00099315
O       -0.27812632       3.20981167       1.21436732       0.00451804      -0.00791107       0.00022542
O        0.18990553       1.37496708       2.29296403      -0.00630989      -0.00366998      -0.00282204
13
Properties=species:S:1:pos:R:3:mp2_forces:R:3 R1=H R2=H R3=NO2 R4=NO2 lg=F nu=F mp2_energy=-18684.70162290472 pbc="F F F"
C        0.58257152      -0.10836803      -0.02594773      -0.00757308       0.00213246       0.01085175
C        0.67694505       1.37941031       0.12385055       0.00065270      -0.00707674       0.00126717
H        1.67026621       1.66782737       0.44738203      -0.00046609      -0.00060650      -0.00149935
F       -1.01556804      -0.20880036       0.85711240       0.00535558       0.00110487       0.00197869
F        2.04852298      -0.06386889      -0.90431441      -0.00147128       0.00211736      -0.00205851
H        0.04220530      -0.52431605      -0.85094064       0.00423846       0.00394143      -0.00360306
H        0.98870820      -0.72193004       0.75585323      -0.00274012      -0.00194339      -0.00260657
N       -0.26697830       2.01497622       1.10877485       0.00122106      -0.00011956       0.00237372
O       -1.24888424       2.61409913       0.69346280       0.00139792      -0.00397526       0.00054842
O        0.09161225       1.93316877       2.27636999      -0.00200377       0.00306693      -0.00468675
N        0.46457790       2.08880787      -1.17813785      -0.00162944       0.00246530      -0.00638275
O        1.04271515       3.17090023      -1.28881165      -0.00248141      -0.00320119       0.00165800
O       -0.28063398       1.59603348      -2.01386357       0.00549947       0.00209429       0.00215923
13
Properties=species:S:1:pos:R:3:mp2_forces:R:3 R1=H R2=H R3=NO2 R4=NO2 lg=Cl nu=F mp2_energy=-28481.724356042163 pbc="F F F"
C        0.46978415      -0.11475066      -0.01913660      -0.00620921      -0.00320658       0.00947426
C        0.67235416       1.36234604       0.15746143      -0.00163392       0.00156488      -0.00108836
H        1.66921372       1.55729991       0.52824037       0.00012214       0.00003600      -0.00351026
Cl      -1.41268453      -0.53169740       0.94839537       0.00361602       0.00234791      -0.00321325
F        2.11523297       0.07917003      -0.95599891      -0.00104326       0.00025925       0.00045476
H        0.09262288      -0.46149786      -0.95852001       0.00278960       0.00288116      -0.00112709
H        1.00882134      -0.76348556       0.64228534       0.00174575       0.00220936      -0.00132541
N       -0.25851340       2.09269730       1.10199891       0.00021743      -0.00353220       0.00109914
O       -1.20337106       2.72121835       0.64191865       0.00385504       0.00096819       0.00153876
O        0.05509704       2.01413513       2.28428084      -0.00324655      -0.00169382      -0.00328424
N        0.56329231       2.09096374      -1.14621971       0.00165907       0.00145791      -0.00129649
O        1.19669759       3.14280993      -1.20773099      -0.00305833      -0.00450432      -0.00070097
O       -0.17248718       1.64873107      -2.01618470       0.00118623       0.00121225       0.00297914
13
Properties=species:S:1:pos:R:3:mp2_forces:R:3 R1=H R2=H R3=NO2 R4=NO2 lg=Cl nu=Cl mp2_energy=-38278.94536089839 pbc="F F F"
C        0.57646345      -0.07545268       0.01319369       0.00523069      -0.00086992      -0.00805583
C        0.67089907       1.41462400      -0.11704376      -0.00217754       0.00454062       0.00990136
H        1.66081000       1.71892456      -0.44113864       0.00019274      -0.00462662       0.00130728
Cl      -1.67363165      -0.36690740      -0.57250443      -0.00046595       0.00071409       0.00175081
Cl       2.68719865      -0.25304729       0.76308223      -0.00105670       0.00116684       0.00074196
H        0.80984325      -0.66642584      -0.85139264      -0.00439350       0.00138407      -0.00095257
H        0.23288437      -0.50382067       0.93073782       0.00178296       0.00002385       0.00013648
N        0.44242091       2.12322141       1.18169492      -0.00257103       0.00220167       0.00010314
O        0.92674445       3.25157758       1.24488018      -0.00353634      -0.00346699      -0.00078510
O       -0.20882441       1.56744577       2.05624094       0.00375723       0.00152037      -0.00239457
N       -0.24898049       2.04690578      -1.14221592       0.00148909       0.00043732      -0.00498859
O       -1.12075720       2.81537534      -0.76791347       0.00350123      -0.00250695      -0.00111071
O        0.04098962       1.76551945      -2.29683093      -0.00175287      -0.00051835       0.00434635
13
Properties=species:S:1:pos:R:3:mp2_forces:R:3 R1=H R2=H R3=NO2 R4=NO2 lg=Cl nu=Br mp2_energy=-95782.095164322 pbc="F F F"
C        0.57718089      -0.06975769       0.01291722       0.00537296       0.00713685      -0.00082283
C        0.67051653       1.42315993       0.10468315      -0.00045600       0.00447210      -0.00681583
H        1.66288443       1.74399622       0.40651418       0.00088611      -0.00621713      -0.00004426
Cl      -1.71116706      -0.32708856       0.60490151       0.00132771      -0.00425663       0.00379985
Br       2.79931279      -0.34524557      -0.78146348      -0.00003534      -0.00183363       0.00311448
H        0.20950049      -0.52343043      -0.88332134      -0.00030256       0.00148942      -0.00081231
H        0.78944243      -0.63779140       0.89894050      -0.00552764       0.00005180      -0.00070458
N       -0.23360226       2.06993919       1.13816753      -0.00219767       0.00384406       0.00307486
O       -1.10021521       2.84654823       0.76979652       0.00334936      -0.00385469       0.00147998
O        0.06937773       1.79312344       2.29036548      -0.00099540      -0.00028292      -0.00565442