14
Properties=species:S:1:pos:R:3:mp2_forces:R:3:forces:R:3 R1=NO2 R2=NH2 R3=H R4=CN lg=Br nu=Cl rxn-id=1108 mp2_energy=-94236.46704708227 energy=-94236.37277132993 free_energy=-94236.46704907104 pbc="F F F"
C        0.59960426      -0.14431323      -0.04394448       0.02510408       0.00820851       0.00203247       0.00845010       0.01846951       0.03502280
C        1.18049640       1.25067209      -0.26877570       0.01487473      -0.02018547      -0.00658985       0.01813266       0.01073082       0.01137413
H        2.24024987       1.14858037      -0.51053466       0.00285159      -0.03621305      -0.03194252       0.01638022       0.00015854      -0.00575383
Br      -1.26763833       0.28869667       0.87656115      -0.00324141       0.03671925      -0.01890430      -0.04454822      -0.13590851      -0.20654738
Cl       4.02709232       0.55186965       1.43484256       0.03315947       0.03051262       0.08859251       0.02152917      -0.00318485      -0.03225279
H        1.13328126       1.78159579       0.68144564       0.00316132      -0.03595727      -0.01608700       0.04045654       0.02147010       0.01033656
N        0.58561421      -0.84080916      -1.43205735       0.02106494      -0.02683282       0.03512517      -0.03736526       0.01054678       0.03697806
O        1.55538744      -0.57589370      -2.14753187      -0.02568022       0.00939527      -0.01992728      -0.04439398      -0.02823454       0.02160338
O       -0.25464006      -1.69753953      -1.66301954      -0.06305001       0.02392772      -0.00729589      -0.06020340       0.04479625       0.03377302
N        1.30852058      -0.90213068       0.82602071       0.02342202       0.01132323      -0.00032040       0.01989751       0.01505763       0.03740338
H        2.24661449      -0.53890087       1.04260479       0.03219887      -0.00914810       0.00498736       0.02952958       0.00592369       0.00508346
H        1.25764184      -1.90954536       0.68429658      -0.00462828       0.01859007      -0.04507550       0.02097523       0.01951709       0.01748022
C        0.46369401       1.98343836      -1.30843301      -0.04683168       0.04213998      -0.06252536       0.00862818       0.01086190       0.01612479
N       -0.10469475       2.59125964      -2.13703530      -0.01240543      -0.05247993       0.07793061       0.00253166       0.00979559       0.01937420
13
Properties=species:S:1:pos:R:3:mp2_forces:R:3:forces:R:3 R1=NO2 R2=H R3=CN R4=CN lg=Cl nu=Cl rxn-id=918 mp2_energy=-37735.580111661155 energy=-37734.50506658087 free_energy=-37735.580121463325 pbc="F F F"
C        0.90004332      -0.09636812       0.05249290       0.00778271       0.00801855      -0.03515310      -0.15048321       0.01699835      -0.04639181
C        1.06406370       1.41354648      -0.03683731       0.02971601       0.01946260       0.02386053       0.00011800       0.00020295       0.00013557
H        2.11861393       1.63489636      -0.22785908       0.00913057       0.06561446      -0.01383129       0.00304580      -0.01420527       0.00200802
Cl      -1.36293834      -0.04476608      -0.34776927      -0.02456139      -0.02339000       0.02962216       0.03840631      -0.00218948       0.00082919
Cl       2.97521727      -0.39531679       0.85635931       0.02411526       0.03164376       0.02875614       0.04913232      -0.00634977       0.01861486
H        0.57083552      -0.64319278       0.91207698      -0.01837047      -0.03895568       0.01579788       0.04069458      -0.00166623       0.01210916
N        1.18906587      -0.84846596      -1.18765372       0.00127758      -0.01553791       0.00521980       0.00607333      -0.00145004       0.00342507
O        1.59758099      -0.18855864      -2.14009533      -0.02695938       0.00412353      -0.01496551       0.00141579      -0.00243990       0.00103841
O        1.01561713      -2.05625407      -1.15559982      -0.04324858       0.01801665      -0.02795711       0.00643348      -0.00318399       0.00569472
C        0.71956699       1.99107234       1.26409735       0.03448778      -0.05706379      -0.03360899       0.00370450      -0.00065227       0.00084623
N        0.47007225       2.47926436       2.30164101      -0.04012469       0.02337451       0.01229725      -0.00240870      -0.00124082      -0.00034383
C        0.31131969       2.09093752      -1.10065400      -0.00139840       0.03061029      -0.02685421       0.00593881       0.01178527       0.00148989
N       -0.13548395       2.79004362      -1.93129822       0.04815299      -0.06591696       0.03681645      -0.00207101       0.00439121       0.00054452
19
Properties=species:S:1:pos:R:3:mp2_forces:R:3:forces:R:3 R1=CH3 R2=CH3 R3=NH2 R4=NO2 lg=Br nu=Br rxn-id=2285 mp2_energy=-151367.59022929455 energy=-151367.2310670745 free_energy=-151367.59022929455 pbc="F F F"
C        0.71671096      -0.12331756      -0.06118520      -0.04113694      -0.07061562       0.00479059       0.00457210      -0.00696832      -0.01655856
C        1.41521418       1.25874879      -0.03400114      -0.04215996       0.05084858      -0.06888362       0.00276414      -0.00443082      -0.00986626
H        2.48770349       1.08811302      -0.10219359      -0.07479598       0.02832276       0.00040543      -0.00075025       0.00098240      -0.00620253
Br      -2.15264556       1.00130132       1.72251772       0.02055123       0.07224414      -0.02575087      -0.03664628       0.05847807       0.09388878
Br       4.73125909      -0.24396469      -0.11633414      -0.00071101       0.07831591      -0.02288791       0.00817777       0.01406138       0.00548191
C        1.09777371      -0.85418423      -1.33208072      -0.01956144       0.01734206       0.04693915       0.02070855      -0.00826214      -0.00783057
H        0.71986968      -0.31967902      -2.20550504       0.01299824       0.02201452       0.05583096       0.02659510      -0.01145946      -0.01134687
H        2.18431010      -0.91310021      -1.37457245      -0.03213691      -0.01885579       0.01295279       0.01979457      -0.00524699       0.00258089
H        0.67351609      -1.85721612      -1.29954061       0.02585616       0.00225861      -0.02550218       0.02187611      -0.00953795      -0.00812451
C        1.15204155      -0.86394953       1.18955595      -0.01822516      -0.01751005      -0.00710054      -0.00790876      -0.00153633      -0.00907885
H        2.23914380      -0.93505088       1.17553600      -0.00948129      -0.00163067       0.04142626      -0.00865137       0.00559727       0.00461936
H        0.81777955      -0.31596244       2.06699595       0.06580047      -0.00963452       0.02083714      -0.02394146       0.00066233      -0.01673839
H        0.70947815      -1.85749095       1.18111167      -0.01936408      -0.02643663      -0.00803684      -0.00134265      -0.00397876      -0.01125012
N        1.03687377       2.00844907       1.10533284      -0.02361498      -0.05219590       0.04085009      -0.00606383      -0.01147641      -0.00384064
H        0.01562244       1.97496871       1.27140405       0.02867702      -0.00916813      -0.02620922      -0.00624896      -0.01401335       0.00061329
H        1.37310014       2.95467412       1.05661704       0.03234060      -0.02319130      -0.00691070      -0.00583158      -0.01161457       0.00442615
N        1.02885291       1.97427653      -1.31076360       0.04620204       0.03710570      -0.02708075      -0.01625500       0.00285472       0.00107635
O       -0.15571256       2.32473717      -1.43168087      -0.00345008      -0.05207837       0.03999998       0.01595591       0.01916669       0.00462105
O        1.90045946       2.20354230      -2.14890684       0.05221217      -0.02713530      -0.04566977      -0.00680411      -0.01327777      -0.01647049
15
Properties=species:S:1:pos:R:3:mp2_forces:R:3:forces:R:3 R1=NO2 R2=H R3=CH3 R4=CN lg=Br nu=Cl rxn-id=946 mp2_energy=-93799.9579575287 energy=-93799.60994434598 free_energy=-93799.95795001902 pbc="F F F"
C        0.98211128      -0.05218603      -0.06808605       0.00349967      -0.01482355       0.00479280       0.03464601       0.00750621       0.01670372
C        1.03830483       1.47108682      -0.12170451       0.00719126      -0.01441776      -0.00539729       0.00433915       0.00996864       0.00067577
H        2.08077999       1.73861533      -0.30049393       0.01151368      -0.03408870       0.00648714      -0.00081202       0.02541200      -0.00776988
Br      -2.25116454      -0.63805940       1.41130378      -0.01278391       0.03414022       0.00116303       0.01613416      -0.00771408       0.01139214
Cl       3.00916543      -0.13707379       1.24913827      -0.01276614       0.02649639       0.06649492      -0.11141457      -0.07881108      -0.06404133
H       -0.03736056      -0.40029401       0.20126420       0.05415168      -0.00075541      -0.00676881       0.04230381      -0.00608512       0.02936031
N        1.29437413      -0.63230591      -1.39891009       0.02302002       0.00049057       0.01051354       0.01927332       0.00713257       0.00889041
O        2.11990899      -0.03784675      -2.09203629      -0.01237964      -0.00350629      -0.03010766       0.02338746      -0.00091193       0.01029007
O        0.72183245      -1.68056117      -1.70351693      -0.02052668      -0.00359350      -0.03959374      -0.00010941       0.02021752       0.00317935
C        0.56003232       2.05274375       1.21402517       0.00004229       0.00650586      -0.01311445      -0.00127183       0.01064802      -0.00178436
H       -0.44870789       1.69060143       1.44174226      -0.00073448       0.02052751      -0.00546954       0.00083575       0.00353232      -0.00273522
H        1.24399707       1.72409406       2.00081215      -0.00489545      -0.00571474      -0.02221676      -0.00385654       0.01804073       0.00332508
H        0.55920281       3.14043717       1.16575611       0.01656477       0.00708620       0.04442392      -0.00916749       0.01058164      -0.00448929
C        0.24691406       1.98231914      -1.24304875      -0.03860358       0.01838442      -0.04917023      -0.00618497      -0.00513449      -0.00008336
N       -0.36346288       2.44288754      -2.13284002      -0.01329349      -0.03673122       0.03796313      -0.00810285      -0.01438296      -0.00291340
17
Properties=species:S:1:pos:R:3:mp2_forces:R:3:forces:R:3 R1=H R2=CH3 R3=CH3 R4=NH2 lg=Br nu=Cl rxn-id=669 mp2_energy=-88308.19840736475 energy=-88307.8316645653 free_energy=-88308.19840605545 pbc="F F F"
C        0.60964390      -0.01510557       0.02114198       0.00264404      -0.02546440      -0.00140422      -0.02652058       0.00157025       0.00674051
C        0.83177827       1.48642528       0.05801779       0.02720807      -0.00295906       0.01093284      -0.01132084       0.00006110       0.00070973
H        1.92461413       1.58051705       0.05460506       0.02109353       0.05716342      -0.03774306      -0.00898676      -0.00489956      -0.00177303
Br      -1.87105961      -0.16664518       0.00900561       0.00659148       0.01885043       0.03958424       0.12170277      -0.02478257      -0.02334056
Cl       3.97816975      -0.65139085      -0.79140268       0.03045460       0.04993148       0.02915920      -0.01298427       0.00429899       0.00608168
H        1.30290842      -0.38712021      -0.75810045      -0.04022148       0.01630309      -0.05637411      -0.05222052      -0.01058318      -0.01023936
C        0.92734433      -0.73075530       1.31218696      -0.01479141      -0.00104772       0.03845712      -0.00719660       0.00164659       0.00193939
H        1.99326793      -0.56962829       1.51649090       0.00555905      -0.03843515      -0.03047418      -0.00300049       0.00036192      -0.00909126
H        0.31612586      -0.37773826       2.13806646      -0.05015182       0.03085756       0.03172617       0.00110907      -0.00001267       0.00980987
H        0.78033939      -1.80221838       1.18845526      -0.01222207       0.00962019      -0.00293191      -0.00621200       0.00061598       0.00741836
C        0.27497270       2.17432045       1.30625348       0.00707383       0.00209040      -0.00736878      -0.00031002       0.00474568       0.00351707
H       -0.78852683       1.94577276       1.43206586      -0.00149967      -0.06807950      -0.03642497      -0.00122410       0.01380409       0.00956598
H        0.81272857       1.88767745       2.21356189      -0.01136181      -0.04901491      -0.01997515       0.00065954      -0.00349319      -0.00014907
H        0.38836130       3.25618157       1.19006188       0.01168598       0.01492150      -0.04685483       0.00917069       0.00368420       0.00560988
N        0.34939250       2.03853050      -1.19656845       0.00217547      -0.01226410       0.03619210      -0.00575320       0.00191618       0.00030525
H        0.65906940       3.00051398      -1.27794708       0.02492597      -0.01756237      -0.02154599       0.00663557      -0.00130965      -0.00427503
H       -0.66977936       2.03574047      -1.17743441      -0.00916378       0.01508915       0.07504553      -0.00354826       0.01237581      -0.00282942
15
Properties=species:S:1:pos:R:3:mp2_forces:R:3:forces:R:3 R1=CN R2=H R3=CH3 R4=NO2 lg=Cl nu=Cl rxn-id=1300 mp2_energy=-36296.982485994035 energy=-36296.004819493355 free_energy=-36296.98248395324 pbc="F F F"
C        0.89666947      -0.02047161      -0.00981751       0.03755082      -0.00651365       0.00488505      -0.00564485       0.00010905      -0.00417364
C        0.93043373       1.49793320      -0.06433860      -0.01340405      -0.01032749      -0.00522535       0.00328423      -0.00377920       0.00180092
H        1.93522076       1.79433887      -0.36756979      -0.02978478      -0.03577210      -0.00668125      -0.00166588       0.00323557       0.00078326
Cl      -1.47097462      -0.17534519      -0.18857103       0.04843378       0.04092836      -0.01272852       0.00873527      -0.00442296      -0.01703925
Cl       3.05036015      -0.17762630       0.76828823      -0.00912936       0.03248932       0.08665307       0.00104608      -0.00010251      -0.01131956
H        0.63246199      -0.51884037       0.90103406       0.04890866      -0.03043202      -0.00662234       0.00173844       0.00435669       0.00442081
C        1.11865780      -0.81720304      -1.18141801      -0.03753417      -0.02329568      -0.02780549      -0.00519539       0.00614354       0.01919223
N        1.33700262      -1.49082007      -2.12138465      -0.03664978       0.02932211      -0.00830382       0.00001630      -0.01719104      -0.00441333
C        0.56298049       2.10348972       1.26869311       0.00423491       0.00080106      -0.00713516       0.00146291      -0.00143865       0.00043103
H       -0.46541805       1.84644751       1.52123451       0.00604680       0.01453838      -0.00534995       0.00180477       0.00094267       0.00255402
H        1.24699971       1.70305470       2.01950732       0.00052048      -0.00433049      -0.00691384      -0.00181405       0.00119131      -0.00080933
H        0.66191302       3.18975624       1.23784065       0.01840592       0.00275912       0.02744538      -0.00193928       0.00210298       0.00448109
N        0.08338347       2.06076790      -1.18537998      -0.01026473      -0.01067988      -0.01025147       0.00024310       0.00419146       0.00028427
O       -0.71364017       2.95356978      -0.92207625      -0.01420559      -0.01578349      -0.00351119      -0.00001297       0.00132871       0.00036330
O        0.34200963       1.64917324      -2.31156789      -0.01312889       0.01629646      -0.01845511      -0.00205870       0.00333239       0.00344418
13
Properties=species:S:1:pos:R:3:mp2_forces:R:3:forces:R:3 R1=CH3 R2=H R3=CN R4=H lg=F nu=Cl rxn-id=1808 mp2_energy=-20945.00614547083 energy=-20943.10340224889 free_energy=-20945.006144246046 pbc="F F F"
C        1.16173039      -0.03821687       0.00283471       0.00155003      -0.03462642      -0.00321634       0.24769916      -0.00201083       0.04821394
C        0.99721426       1.46801703      -0.03993956      -0.01174224      -0.02219890      -0.01152622       0.00650786      -0.00716344       0.00166720
H        1.91354819       1.93922629      -0.39946969      -0.00514626      -0.02356470       0.05520905      -0.00458605       0.02462034      -0.00298447
F       -0.88216070      -0.07996445      -0.17039845       0.03938789       0.03754787       0.02055332      -0.09968635       0.00523478      -0.00754024
Cl       3.20223240      -0.14323503       0.64356517       0.03230439       0.03035875      -0.03362230      -0.09022698       0.00345032      -0.02376758
H        0.82110410      -0.57427197       0.86825105       0.03534159       0.02451927       0.01786068      -0.05517948       0.01221707      -0.03614999
H        0.16422840       1.68618703      -0.71013362      -0.01177630      -0.00082586      -0.02027999      -0.00152683      -0.03512496       0.00567564
C        1.29297077      -0.74181142      -1.32053107      -0.01346621      -0.01135322      -0.01236905       0.00889258       0.00207902       0.00484228
H        0.33038631      -0.68418450      -1.82256669       0.01957606       0.05890481      -0.00475255      -0.00868509       0.01275749       0.04178941
H        2.08030648      -0.27616942      -1.91753683       0.01829279      -0.06193367       0.05083795      -0.00095959      -0.00619224      -0.02269616
H        1.56800040      -1.78609987      -1.16452465      -0.05786049       0.00139115      -0.04326304       0.00097448      -0.00400911      -0.00643691
C        0.67552529       2.03490312       1.26599050      -0.01412178      -0.02004568      -0.01409239      -0.00294962      -0.00476595      -0.00242677
N        0.42636895       2.53314420       2.29856749      -0.03233949       0.02182660      -0.00133911      -0.00027409      -0.00109249      -0.00018635
14
Properties=species:S:1:pos:R:3:mp2_forces:R:3:forces:R:3 R1=NO2 R2=H R3=H R4=CH3 lg=Br nu=Cl rxn-id=876 mp2_energy=-91294.06677935288 energy=-91294.01870653576 free_energy=-91294.06677184919 pbc="F F F"
C        0.99663236      -0.46661691      -0.64396415       0.03290504       0.02595864      -0.04574274       0.01017694       0.00259996       0.00863094
C        1.29877031       0.98897576      -0.38663181       0.04637425       0.02039649       0.03817023       0.01049964       0.00076361      -0.00280157
H        2.29069464       1.19722267      -0.77711620       0.04331527       0.01268493       0.01010468       0.00791150      -0.00030370      -0.00590806
Br      -2.07994293       1.30533232       1.77827661       0.04852060       0.01912154      -0.00518978       0.00404802      -0.04862174      -0.01216279
Cl       2.74947678       1.14129094       2.74737325       0.00478337       0.01863775       0.05835553      -0.01200694       0.02026812       0.01040628
H       -0.01838419      -0.73574750      -0.32665214       0.00634838       0.01848005      -0.07754704      -0.02886398       0.01516305       0.00226090
H        1.34795171       1.07446994       0.70947779      -0.01207982       0.04249635       0.05645941       0.01321651       0.00558886      -0.00409887
N        1.16136707      -0.89313739      -2.01763877      -0.02745356       0.00924888      -0.01593921      -0.00571440       0.00164661       0.00425911
O        1.68720152      -0.10082945      -2.81601027      -0.07543075       0.03895600       0.03517285      -0.00393338      -0.00892208       0.00176325
O        0.81132388      -2.03916270      -2.30436207      -0.05882287      -0.05663854      -0.03719682      -0.02409091       0.01344111      -0.00213191
C        0.24243522       1.94005011      -0.94291547       0.01068444      -0.04109019       0.01529301       0.00690836       0.00047669       0.00219593
H        0.14814407       1.84299777      -2.02314552       0.03153789      -0.02677625       0.01178720      -0.00141055      -0.00508251       0.00022385
H       -0.71970538       1.76654289      -0.44854446      -0.00375625      -0.05022210      -0.02436186       0.01325295       0.00401671       0.00595943
H        0.53479641       2.96977520      -0.71223461      -0.04692600      -0.03125354      -0.01936544       0.01000624      -0.00103469      -0.00859651
14
Properties=species:S:1:pos:R:3:mp2_forces:R:3:forces:R:3 R1=NH2 R2=CN R3=CN R4=CN lg=Cl nu=Cl rxn-id=2623 mp2_energy=-36188.81519176074 energy=-36187.72674604603 free_energy=-36188.81519578857 pbc="F F F"
C        1.38245435      -0.16849014       0.09445706       0.00795376      -0.01193009      -0.07465210      -0.04778865      -0.00453896      -0.00094193
C        1.28452184       1.36631628       0.04333262      -0.01709091      -0.01763822      -0.00716728       0.00001507      -0.00590734       0.00071016
H        2.33698901       1.69058666       0.07163239      -0.02828987      -0.00274986       0.01061887       0.00826064      -0.02871563       0.00811015
Cl      -1.43283872       0.03396050       0.12041943       0.03307186       0.02848674       0.06368472       0.00430820       0.00238008      -0.00500206
Cl       4.17810094       0.33330817       0.59204079       0.03421077       0.02489237      -0.03137529       0.06092289       0.05542341       0.01093557
N        1.21287886      -0.84676579      -1.01289770      -0.02817945      -0.02777875      -0.02587834      -0.01677061      -0.00538995      -0.00277971
H        0.93760156      -0.34532530      -1.84504579       0.02757938      -0.03835848       0.03188504      -0.01269177      -0.00569507      -0.00380164
H        0.95798385      -1.82441431      -0.94547220      -0.03765589       0.06141339       0.00187506      -0.01739903      -0.00470541      -0.00393265
C        1.26365327      -0.84605984       1.35087310       0.03254645      -0.00677566       0.03379301      -0.00289830      -0.00427755      -0.00008172
N        1.19319946      -1.45770286       2.35498315      -0.05971486      -0.00414016       0.02310463       0.00465834      -0.00367534       0.00084274
C        0.61465689       1.97648088       1.19454745      -0.01466921       0.00403725      -0.02912869       0.00220157       0.00080710      -0.00146581
N        0.23927984       2.55473593       2.14573692      -0.00562293      -0.03415484       0.01272761      -0.00242608      -0.00275681      -0.00130672
C        0.71289256       1.80265135      -1.23215308       0.01517833      -0.00343335      -0.00753699       0.01027832       0.00389657      -0.00070476
N        0.40992933       2.11751721      -2.32276291       0.04068257       0.02812965      -0.00195026       0.00932940       0.00315489      -0.00058161
11
Properties=species:S:1:pos:R:3:mp2_forces:R:3:forces:R:3 R1=H R2=H R3=NO2 R4=H lg=Br nu=Cl rxn-id=29 mp2_energy=-90227.66649340076 energy=-90227.3535988684 free_energy=-90227.66649340076 pbc="F F F"
C        0.51681387      -0.12064249       0.25127084      -0.01662047      -0.01874569       0.00214181      -0.00488888       0.00112244      -0.01424625
C        1.01699988       1.29329131       0.20037993      -0.00123729      -0.00067576       0.01219984       0.00368067      -0.00189524      -0.00099813
H        2.11410681       1.24204619       0.25282025       0.00709719       0.00957240      -0.00112612       0.00220513      -0.00679335       0.01005827
Br      -1.42528487      -0.04078637      -1.29099556       0.00769569       0.00137802      -0.09548133       0.02706247       0.00145780       0.04084055
Cl       4.02041021      -0.12968189      -0.05273666       0.01754595       0.01884623      -0.04029828      -0.01115250       0.01161863      -0.01954011
H        1.03648883      -0.68835464      -0.51271092      -0.03272941       0.01401609       0.05285008       0.01749297      -0.00354539       0.00180273
H        0.78534687      -0.55466947       1.22145064       0.00934886      -0.03971473       0.06872373      -0.03786422       0.00137248      -0.00479450
H        0.70058440       1.81805245      -0.69850854      -0.02657112      -0.00536525      -0.01556359       0.01751026       0.00310176      -0.00240493
N        0.56304469       2.10442753       1.35704625       0.01812362       0.03563434      -0.01417212      -0.00367613      -0.00154114      -0.00375636
O        0.32779416       3.29656991       1.15241372       0.02814394      -0.00937034       0.01217612       0.00015416      -0.00229293      -0.00356889
O        0.48624441       1.55682899       2.45680878      -0.01079697      -0.00557531       0.01854985      -0.01052392      -0.00260506      -0.00339237
16
Properties=species:S:1:pos:R:3:mp2_forces:R:3:forces:R:3 R1=CN R2=CN R3=CH3 R4=NO2 lg=Cl nu=F rxn-id=1441 mp2_energy=-29004.5294350704 energy=-29004.271271667858 free_energy=-29004.5294350704 pbc="F F F"
C        0.71916168      -0.04424481      -0.00375041       0.04630820       0.04426699      -0.00835204      -0.07527057       0.00685347      -0.01583158
C        0.78602517       1.49292128      -0.06182724       0.01363822      -0.00579159       0.00556356      -0.00108601      -0.00336062      -0.00078972
H        1.79462221       1.72639177      -0.39201068       0.00362282       0.02284214      -0.01793791       0.00506377      -0.02650211       0.00370385
Cl      -1.43705540      -0.28301002      -0.30055797      -0.04675402      -0.00179040       0.02099512       0.00933191      -0.00219623       0.00595883
F        2.58935213       0.02835416       0.42446980      -0.00579489       0.00404229       0.03797303       0.03682743      -0.00171307       0.01994533
C        1.11674952      -0.82793007      -1.14994545      -0.00388976      -0.00175797       0.01765388       0.00747156       0.01279175       0.00394989
N        1.42431524      -1.47675791      -2.08130206       0.00677447       0.02538848      -0.02130800       0.00045014      -0.00787760       0.01160242
C        0.64883044      -0.70273293       1.28512942      -0.04406532      -0.00799266       0.02227420       0.02633107       0.01456066      -0.01519741
N        0.55166074      -1.21113946       2.34198175       0.02862087      -0.00757917      -0.01668815       0.00049713      -0.00063921      -0.01312546
C        0.49293809       2.12818252       1.27126254      -0.00276769      -0.01817680      -0.00559815      -0.00169207      -0.00039310       0.00052944
H       -0.50490112       1.86437465       1.61885995      -0.00107798       0.01358567       0.02151507      -0.00116444       0.00354901       0.00556812
H        1.24486479       1.76375475       1.97475317      -0.00453718      -0.01749614      -0.01716696      -0.00333281      -0.00236466      -0.00228300
H        0.56485661       3.21474970       1.19771062       0.00871420      -0.02523158      -0.02365144      -0.00060964      -0.00125820      -0.00236034
N       -0.08021697       2.05646845      -1.16299161      -0.00195143      -0.03119909      -0.01206317       0.00198606       0.00533542      -0.00267479
O       -0.92143380       2.90475976      -0.88381560       0.00714946      -0.00275335      -0.01919036      -0.00219485      -0.00219993       0.00385225
O        0.19563932       1.67596487      -2.29698074      -0.00398997       0.00964319       0.01598131      -0.00260869       0.00541442      -0.00284784
16
Properties=species:S:1:pos:R:3:mp2_forces:R:3:forces:R:3 R1=CN R2=CN R3=CH3 R4=NH2 lg=Cl nu=F rxn-id=1452 mp2_energy=-24951.619493867092 energy=-24951.431388891193 free_energy=-24951.619493867092 pbc="F F F"
C        0.71139121      -0.00409979      -0.02138305      -0.06039832      -0.06163312      -0.00526729       0.14444034       0.01365532       0.01706797
C        0.69777135       1.53337990      -0.04570682       0.02326462       0.00696670      -0.00407405       0.00252216       0.00328583       0.00063673
H        1.74874961       1.76736244      -0.20123008       0.08313642       0.04501635      -0.02635794      -0.00167069       0.02370032      -0.00301003
Cl      -1.45756151      -0.36677723      -0.16373374      -0.03971099       0.03896021       0.01495427      -0.04605419      -0.00558009      -0.00162507
F        2.65348474       0.02946242       0.25972542      -0.00255989       0.02414026       0.06089597      -0.03591194       0.00295031      -0.01477553
C        1.04397788      -0.69288557      -1.24683635       0.04415252      -0.02235802      -0.03039670      -0.02000054      -0.00611228      -0.00594638
N        1.28235080      -1.24788357      -2.25589596       0.00428483       0.02828946      -0.03496860      -0.00622697      -0.00226019      -0.00430628
C        0.82023464      -0.71827284       1.23067875      -0.01301473      -0.01269259       0.04675115      -0.03236548      -0.00969151       0.00650955
N        0.80754178      -1.26040299       2.27450949       0.04600804       0.02043800      -0.03197681      -0.00161996      -0.00492678       0.00758973
C        0.25985388       2.10105604       1.29999688      -0.01900627      -0.00940995       0.01035862      -0.00210138      -0.00141380       0.00049739
H       -0.75762868       1.78919801       1.54452103      -0.04150284       0.02192648       0.03466246      -0.00076182      -0.00527945      -0.00259339
H        0.93598831       1.77318365       2.09418716       0.00635795      -0.01666382      -0.01395990      -0.00145098       0.00052559       0.00153708
H        0.28958303       3.19511282       1.25031167       0.01596638      -0.02300268      -0.03336975      -0.00400086      -0.00098257       0.00069206
N       -0.02819040       2.02338409      -1.20646137      -0.01062865      -0.00732766      -0.00010846       0.00021999      -0.00221034      -0.00090629
H        0.17567167       3.00912911      -1.32401277       0.02562384      -0.07863373       0.02142464       0.00352680      -0.00178079      -0.00251340