14
Properties=species:S:1:pos:R:3:mp2_forces:R:3:forces:R:3 R1=NO2 R2=NH2 R3=H R4=CN lg=Br nu=Cl rxn-id=1108 mp2_energy=-94236.73393464655 energy=-94236.73392899126 free_energy=-94236.73392899126 pbc="F F F"
C        0.71335204      -0.05946502      -0.03196641       0.01863238       0.01885082      -0.01529028       0.01871606       0.01884723      -0.01531816
C        0.15052407       1.35258595      -0.10890552      -0.01855545      -0.00653006      -0.02292029      -0.01854410      -0.00651711      -0.02296049
H        0.56119000       1.88389159       0.75458043      -0.03929969      -0.06068381       0.01157428      -0.03930298      -0.06067195       0.01157716
Br      -2.93635501      -0.15178624       0.64886430      -0.00760397       0.00957657       0.07490558      -0.00760368       0.00957790       0.07490566
Cl       2.51277014      -0.03323114      -0.19166736       0.03420406       0.01564572      -0.03104798       0.03415335       0.01564927      -0.03103345
H       -0.93689132       1.26261966       0.03857625      -0.02971346      -0.03806566      -0.07959435      -0.02972200      -0.03806336      -0.07958656
N        0.29012374      -0.91056685      -1.27979398      -0.02527037       0.01472018       0.02357384      -0.02525893       0.01482481       0.02357025
O        0.14065328      -0.33406804      -2.34818292      -0.04053929       0.02452288       0.03500472      -0.04050904       0.02448668       0.03499967
O        0.19125083      -2.11631860      -1.09038366       0.03636719       0.00614536       0.03957790       0.03631829       0.00607428       0.03959573
N        0.34466059      -0.65204689       1.17648452      -0.00186988       0.03062014      -0.00239575      -0.00185813       0.03062447      -0.00240759
H        0.58406141      -1.63683245       1.17298221       0.01392708       0.03218923      -0.02811042       0.01391820       0.03217694      -0.02810952
H       -0.67451281      -0.55617192       1.28726781      -0.02785523      -0.02814461      -0.06085469      -0.02787506      -0.02814364      -0.06084778
C        0.42881042       2.14544769      -1.30071480      -0.00242696      -0.00415973       0.07763004      -0.00244213      -0.00412329       0.07758947
N        0.59645380       2.90328787      -2.18106649       0.09000358      -0.01468704      -0.02205259       0.09001016      -0.01474221      -0.02197440
13
Properties=species:S:1:pos:R:3:mp2_forces:R:3:forces:R:3 R1=NO2 R2=H R3=CN R4=CN lg=Cl nu=Cl rxn-id=918 mp2_energy=-37735.12626940748 energy=-37735.126273812544 free_energy=-37735.126273812544 pbc="F F F"
C        0.58387282      -0.05364449      -0.06764521      -0.01547453      -0.00566272       0.01281985      -0.01544452      -0.00563822       0.01278251
C        0.48769769       1.47114530      -0.21510352       0.00092295      -0.01643482       0.00814885       0.00092232      -0.01643612       0.00814497
H        1.48414630       1.82663186      -0.50564675      -0.01379242      -0.00855584      -0.00366078      -0.01378383      -0.00855828      -0.00366328
Cl      -2.38484682       0.01905576      -0.19642193      -0.02463227      -0.00042675       0.06313320      -0.02461604      -0.00042561       0.06313438
Cl       2.12577219      -0.43417198       0.75623066      -0.02529168       0.02320563       0.00230392      -0.02529027       0.02320127       0.00232402
H       -0.24362290      -0.47162210       0.49603696      -0.07532631       0.00256537      -0.03464673      -0.07536654       0.00255140      -0.03461021
N        0.61321704      -0.75370815      -1.39288315       0.06557509       0.00029059       0.00153011       0.06558114       0.00026104       0.00143816
O        0.91380943      -0.08671264      -2.38017117       0.04094729       0.01481879       0.00537237       0.04091366       0.01482817       0.00541852
O        0.39594327      -1.95636203      -1.36328077       0.00205979       0.01334413      -0.04484374       0.00208774       0.01336314      -0.04481506
C        0.18926285       2.03526145       1.10779340       0.01305619       0.00502058       0.01912106       0.01305281       0.00501522       0.01910896
N        0.01658316       2.50317402       2.17045710       0.03566755       0.01020969      -0.03428353       0.03566934       0.01021234      -0.03426025
C       -0.43686144       2.01913545      -1.21673731      -0.03694058       0.02739597      -0.04121649      -0.03689908       0.02735761      -0.04116971
N       -0.95347253       2.68876515      -2.03387825       0.03322894      -0.06577062       0.04622192       0.03317329      -0.06573195       0.04616699
19
Properties=species:S:1:pos:R:3:mp2_forces:R:3:forces:R:3 R1=CH3 R2=CH3 R3=NH2 R4=NO2 lg=Br nu=Br rxn-id=2285 mp2_energy=-151367.11492710505 energy=-151367.11493203434 free_energy=-151367.11493203434 pbc="F F F"
C        0.84532380      -0.07060836      -0.00169256      -0.02770373      -0.04380043       0.00098965      -0.02768525      -0.04380327       0.00098089
C        0.63617028       1.48533898       0.01287256       0.01683534      -0.01216714       0.00467650       0.01683536      -0.01217701       0.00466934
H        1.59402743       1.96487740      -0.19785507       0.01749192      -0.01117832       0.03758971       0.01749293      -0.01117370       0.03759205
Br      -2.94055590       0.53709462       0.38101523      -0.01415776      -0.01415243       0.04596247      -0.01415600      -0.01415195       0.04596281
Br       2.84204803      -0.32800516       0.04499788       0.03556447       0.04888075      -0.01880355       0.03556182       0.04888299      -0.01879982
C        0.34410993      -0.84401834      -1.21221155      -0.02693419      -0.00499873      -0.02462463      -0.02693521      -0.00499504      -0.02462722
H       -0.73282166      -0.67790646      -1.29470071      -0.02292488       0.00748824       0.00990456      -0.02292742       0.00748659       0.00990246
H        0.82833281      -0.54969954      -2.13795503       0.00832452       0.01762886       0.00435204       0.00832215       0.01762623       0.00435545
H        0.52303224      -1.90832336      -1.03614272       0.00555890       0.02866921       0.01794453       0.00555817       0.02866830       0.01794475
C        0.32012433      -0.74263760       1.26032459      -0.01679934      -0.00038742       0.02471104      -0.01680042      -0.00038578       0.02470461
H        0.71293747      -1.76076444       1.31467296      -0.05319476       0.00649527      -0.04212165      -0.05319522       0.00649414      -0.04211979
H        0.60567707      -0.19502927       2.15537512       0.06649757      -0.02228085      -0.00116194       0.06649862      -0.02227855      -0.00115476
H       -0.77099558      -0.77433632       1.19376423      -0.00715509       0.04649104       0.03926976      -0.00716180       0.04649005       0.03927215
N        0.13828273       1.95460439       1.25406516      -0.02723038       0.00536159      -0.05521913      -0.02722204       0.00535849      -0.05521237
H       -0.83158795       1.64195315       1.35476790       0.00528802      -0.03157841      -0.04907584       0.00527936      -0.03157962      -0.04907508
H        0.13025939       2.96609218       1.24349075      -0.03756449       0.00129836      -0.01143045      -0.03756664       0.00130335      -0.01142996
N       -0.17324152       2.07493616      -1.19718311       0.04649058      -0.03008231      -0.03758142       0.04651030      -0.03012673      -0.03761817
O       -0.82882063       3.08003784      -0.95491653      -0.01356835      -0.00925851       0.00652240      -0.01357555      -0.00920648       0.00654478
O        0.04153095       1.63472734      -2.32295763       0.04518166       0.01757120       0.04809595       0.04516689       0.01756798       0.04810791
15
Properties=species:S:1:pos:R:3:mp2_forces:R:3:forces:R:3 R1=NO2 R2=H R3=CH3 R4=CN lg=Br nu=Cl rxn-id=946 mp2_energy=-93799.9298919263 energy=-93799.929900569 free_energy=-93799.929900569 pbc="F F F"
C        0.52940603      -0.01758265      -0.12266498      -0.01239420      -0.00212807      -0.00855422      -0.01238410      -0.00208965      -0.00854409
C        0.49264546       1.50324248      -0.21593839      -0.00579176       0.00350704      -0.01120838      -0.00575777       0.00349347      -0.01118438
H        1.49908314       1.84581997      -0.48060198       0.00480224      -0.00397979      -0.00096700       0.00479339      -0.00398329      -0.00096962
Br      -2.77261890      -0.22846417       0.30743831      -0.01587783      -0.00782042       0.09715795      -0.01587101      -0.00782403       0.09716137
Cl       1.93264687      -0.51008892       0.86551991      -0.04419076      -0.02215490       0.02293385      -0.04418555      -0.02214742       0.02292602
H       -0.39133426      -0.42066596       0.31421706      -0.03003111       0.00359770      -0.03700370      -0.03004464       0.00359353      -0.03699997
N        0.70277925      -0.69686609      -1.45416798       0.02139990       0.01192255      -0.01099078       0.02151179       0.01182246      -0.01098926
O        1.09179320      -0.01811007      -2.40328366       0.06397302       0.01656877       0.01064744       0.06391389       0.01663272       0.01062015
O        0.46733631      -1.89846721      -1.47645244       0.00166174       0.01714138      -0.03818063       0.00159509       0.01716427      -0.03816634
C        0.05944859       2.08862385       1.13596141       0.00178865       0.00218761      -0.00466003       0.00179181       0.00218388      -0.00465472
H       -0.94933230       1.73671599       1.35915445       0.00492651      -0.00207562       0.00084990       0.00493159      -0.00207658       0.00084504
H        0.74208738       1.77268180       1.92596390       0.00593842       0.01230443      -0.00471432       0.00593543       0.01230711      -0.00471741
H        0.06241994       3.17926090       1.08439601      -0.00426097       0.00150654      -0.00827952      -0.00426684       0.00149898      -0.00828130
C       -0.39804413       2.01088486      -1.26555556       0.03243377      -0.02813942       0.03162891       0.03246274      -0.02816719       0.03166514
N       -1.02494610       2.57721837      -2.08040765      -0.02437762      -0.00243779      -0.03865946      -0.02442584      -0.00240826      -0.03871061
17
Properties=species:S:1:pos:R:3:mp2_forces:R:3:forces:R:3 R1=H R2=CH3 R3=CH3 R4=NH2 lg=Br nu=Cl rxn-id=669 mp2_energy=-88308.58393083852 energy=-88308.58392360812 free_energy=-88308.58392360812 pbc="F F F"
C        0.62955923       0.01996420       0.10913107      -0.01441197      -0.03141104      -0.01317224      -0.01449660      -0.03138639      -0.01311152
C        0.54105734       1.55906378       0.11196716      -0.02494663      -0.02225162       0.00218721      -0.02495287      -0.02223156       0.00221294
H        1.56204861       1.95897454       0.14385385      -0.04548097      -0.00014089       0.05043752      -0.04547827      -0.00014664       0.05043096
Br      -2.96801806      -0.13652763      -0.22108440       0.00007482       0.07347561      -0.02001590       0.00007488       0.07347510      -0.02001673
Cl       2.26749171      -0.46862095      -0.51422279      -0.03756553      -0.02736192      -0.00545571      -0.03749742      -0.02737882      -0.00548197
H       -0.07822395      -0.35262430      -0.62897257       0.02161518      -0.01215377      -0.01927232       0.02161524      -0.01216286      -0.01928721
C        0.35589237      -0.69513355       1.41481968       0.03520909       0.00356862       0.00853339       0.03520192       0.00356775       0.00853322
H        1.04215500      -0.40228275       2.21303118       0.04983911       0.03824171      -0.00993639       0.04983790       0.03824017      -0.00994344
H       -0.67676427      -0.48366188       1.69792039       0.03640094      -0.02807557       0.01992454       0.03642091      -0.02807956       0.01991794
H        0.44077006      -1.77307023       1.26136394       0.01383939       0.01201805       0.01310631       0.01384263       0.01201660       0.01310545
C       -0.24231510       2.11572853       1.30366608      -0.02027470      -0.01407404       0.00600982      -0.02028482      -0.01409864       0.00599674
H       -1.27324778       1.76002414       1.25855361      -0.02944293       0.00907582       0.03175264      -0.02942811       0.00909011       0.03176234
H        0.19967263       1.83107257       2.26304867      -0.00291430       0.00865070       0.00883571      -0.00291770       0.00865928       0.00883352
H       -0.24572697       3.21038926       1.25008515      -0.00186715      -0.01408566      -0.02981104      -0.00186350      -0.01408789      -0.02981466
N       -0.04182681       1.93809643      -1.17827418       0.00254224      -0.01347494      -0.00893831       0.00253941      -0.01348075      -0.00894148
H       -0.11739335       2.94912996      -1.22884241       0.01180841       0.00403483       0.03532147       0.01180834       0.00403439       0.03531875
H       -0.99355928       1.56826295      -1.18068913       0.00557502       0.01396410      -0.06950670       0.00557804       0.01396970      -0.06951484
15
Properties=species:S:1:pos:R:3:mp2_forces:R:3:forces:R:3 R1=CN R2=H R3=CH3 R4=NO2 lg=Cl nu=Cl rxn-id=1300 mp2_energy=-36296.583721657065 energy=-36296.583731965984 free_energy=-36296.583731965984 pbc="F F F"
C        0.65252354       0.00258645      -0.09977785      -0.00634466      -0.00109935      -0.02260957      -0.00623736      -0.00113491      -0.02257002
C        0.55327162       1.53631278      -0.16930175       0.00422955      -0.00737184      -0.00444443       0.00425983      -0.00742478      -0.00438968
H        1.52509962       1.91761919      -0.49823831       0.00558078      -0.01266110      -0.00181316       0.00558150      -0.01265425      -0.00182518
Cl      -2.41419766      -0.12157360       0.09926168      -0.02775514      -0.00891955       0.09485398      -0.02775778      -0.00891974       0.09485628
Cl       2.26002513      -0.36470081       0.67326851      -0.03430678      -0.01839684       0.02961002      -0.03434498      -0.01839017       0.02959776
H       -0.12686887      -0.37927902       0.56158157      -0.01600901       0.00568812      -0.03915137      -0.01602236       0.00569425      -0.03918474
C        0.59901644      -0.74987736      -1.34582526       0.02316777       0.02982936       0.01009767       0.02315628       0.02994233       0.01017385
N        0.62714906      -1.46625220      -2.27596984       0.03787470       0.00671009      -0.03387799       0.03785504       0.00659923      -0.03395461
C        0.14776117       2.10151684       1.17553949       0.00103793      -0.00058470      -0.00449256       0.00102922      -0.00057897      -0.00448386
H       -0.87648180       1.79010629       1.38193269       0.00105972      -0.00198166       0.00538000       0.00106566      -0.00197873       0.00537557
H        0.81557059       1.71041690       1.94523989       0.00039943       0.00178099      -0.00130337       0.00039072       0.00178639      -0.00132147
H        0.20730128       3.18937900       1.17684760      -0.00517905       0.00392871      -0.01240064      -0.00518113       0.00392564      -0.01240747
N       -0.37012399       2.03792426      -1.25994701       0.00818099       0.00126658      -0.00446014       0.00808169       0.00140257      -0.00430702
O       -1.14423612       2.94434079      -0.98085571       0.00031709      -0.00414710      -0.01038818       0.00033658      -0.00413118      -0.01040172
O       -0.17451616       1.58874849      -2.38486765       0.00774668       0.00595830      -0.00500024       0.00778708       0.00586231      -0.00515769
13
Properties=species:S:1:pos:R:3:mp2_forces:R:3:forces:R:3 R1=CH3 R2=H R3=CN R4=H lg=F nu=Cl rxn-id=1808 mp2_energy=-20943.784234969607 energy=-20943.784235184903 free_energy=-20943.784235184903 pbc="F F F"
C        0.81198457      -0.06099704       0.00179815       0.00192241      -0.00620398       0.01472910       0.00189018      -0.00619425       0.01470804
C        0.26838048       1.35401782      -0.01927094      -0.01996427      -0.01727416       0.01363408      -0.01994443      -0.01727684       0.01366546
H        0.81736792       1.96667897      -0.74247488      -0.06915948      -0.00467005      -0.00107736      -0.06915949      -0.00466826      -0.00107512
F       -1.99373013       0.08815768      -0.53767633      -0.00771047       0.03140479      -0.07081742      -0.00770542       0.03140397      -0.07081800
Cl       2.56820691      -0.10399738       0.50087801      -0.00085458       0.01074933      -0.00903371      -0.00084846       0.01074180      -0.00902460
H        0.27175976      -0.61759872       0.76485116       0.00873837      -0.02070347       0.00854470       0.00875263      -0.02070034       0.00854229
H       -0.81084398       1.13838050      -0.33250898      -0.00444070      -0.03246487       0.00139733      -0.00445350      -0.03246131       0.00139705
C        0.61696104      -0.72652827      -1.34226058       0.00522400      -0.00167531       0.01546015       0.00522789      -0.00167095       0.01547096
H       -0.47111713      -0.68635824      -1.48400235       0.01302059       0.01935010      -0.00806342       0.01302022       0.01934884      -0.00806577
H        1.14203031      -0.17770971      -2.13076950       0.00251969      -0.00366432       0.02071518       0.00252083      -0.00366700       0.02071718
H        0.97784996      -1.75778544      -1.32955979       0.00741410       0.00046462       0.00333538       0.00741408       0.00046298       0.00333218
C        0.26210523       2.00342626       1.27957360      -0.01026518       0.03384094       0.05559914      -0.01026143       0.03382406       0.05557067
N        0.19582722       2.53426647       2.32684663       0.07355551      -0.00915361      -0.04442314       0.07354688      -0.00914269      -0.04442036
14
Properties=species:S:1:pos:R:3:mp2_forces:R:3:forces:R:3 R1=NO2 R2=H R3=H R4=CH3 lg=Br nu=Cl rxn-id=876 mp2_energy=-91294.35738050156 energy=-91294.3573730057 free_energy=-91294.3573730057 pbc="F F F"
C        0.62802673       0.04479716      -0.12566369      -0.03960687      -0.03423282      -0.02248096      -0.03963472      -0.03423262      -0.02252933
C        0.82571007       1.51973691      -0.38569604       0.02094633      -0.02899088      -0.01167327       0.02095836      -0.02897433      -0.01168295
H        1.78588621       1.65399003      -0.88977661       0.02696403       0.01363994      -0.02909907       0.02695518       0.01363206      -0.02908973
Br      -2.87951022      -0.22073367      -0.13552331       0.00320851       0.00741008       0.09158888       0.00321261       0.00740876       0.09159110
Cl       1.93733759      -0.57283870       0.92647830      -0.00468110       0.00071022       0.05561074      -0.00465823       0.00071906       0.05561765
H       -0.33552365      -0.19611556       0.32931593      -0.07899456      -0.00208597       0.00052903      -0.07900842      -0.00209194       0.00054554
H        0.91413725       1.98251302       0.60253482      -0.02601933       0.00391442      -0.01088300      -0.02601760       0.00390982      -0.01088008
N        0.67703417      -0.79693461      -1.38080809       0.03406288       0.04594141      -0.06694681       0.03415444       0.04599331      -0.06708929
O        1.00172225      -0.24812664      -2.43346193       0.06747537      -0.00069391       0.00333967       0.06741052      -0.00072649       0.00346008
O        0.39432475      -1.97982474      -1.25455683       0.00152828      -0.02931218       0.00168880       0.00150928      -0.02932573       0.00172294
C       -0.31152658       2.17507906      -1.16425660       0.01084427      -0.00663225      -0.00241767       0.01084835      -0.00664502      -0.00241936
H       -0.40240149       1.73658488      -2.15613352      -0.01047868       0.03455914      -0.02257494      -0.01047979       0.03456404      -0.02256774
H       -1.26443065       2.03138964      -0.65635897       0.00314207      -0.00658075      -0.00571823       0.00314202      -0.00658274      -0.00571847
H       -0.10572007       3.24439963      -1.27506572      -0.00839118       0.00235355       0.01903683      -0.00839199       0.00235181       0.01903963
14
Properties=species:S:1:pos:R:3:mp2_forces:R:3:forces:R:3 R1=NH2 R2=CN R3=CN R4=CN lg=Cl nu=Cl rxn-id=2623 mp2_energy=-36188.117960604126 energy=-36188.11794985092 free_energy=-36188.11794985092 pbc="F F F"
C        0.64545937      -0.09976213      -0.00532862      -0.00725746       0.02993693       0.02225940      -0.00724960       0.02984428       0.02232689
C        0.28041957       1.42471389      -0.06441432      -0.00250922       0.02220495       0.00714461      -0.00250408       0.02214420       0.00722884
H        1.22658929       1.93923122      -0.26987486      -0.00295353       0.00537758      -0.00884330      -0.00291097       0.00540323      -0.00885548
Cl      -2.43686061      -0.08646414       0.03204102       0.00023897      -0.01013530      -0.03301236       0.00024021      -0.01014028      -0.03300387
Cl       2.46893866      -0.16111449       0.19051004       0.00261102      -0.05046291      -0.04183673       0.00264712      -0.05044429      -0.04183029
N        0.32378262      -0.71709249      -1.25271600       0.00628714       0.02099776       0.01115642       0.00624037       0.02095562       0.01115316
H       -0.70351462      -0.70454529      -1.28694883       0.00042579      -0.00852941       0.00838447       0.00045485      -0.00852042       0.00837126
H        0.62586874      -1.68543481      -1.22608152       0.01245988      -0.01244528       0.00366745       0.01245158      -0.01241254       0.00366356
C        0.16124262      -0.77830938       1.21252909       0.01212622       0.03588953      -0.02801543       0.01213104       0.03605144      -0.02825192
N        0.00748776      -1.41174785       2.19175488      -0.00799093      -0.02872685       0.04513604      -0.00799667      -0.02883791       0.04531317
C       -0.19311358       1.95460936       1.21430673      -0.00382849       0.00730034       0.02470581      -0.00382158       0.00727118       0.02468495
N       -0.45164388       2.45888762       2.24270128       0.00133191      -0.00705994      -0.00408524       0.00131953      -0.00701365      -0.00404958
C       -0.58441929       1.82154378      -1.18041219      -0.02197430      -0.00164101      -0.01415569      -0.02207272      -0.00157058      -0.01431543
N       -1.06234437       2.32241122      -2.12972263       0.01103301      -0.00270639       0.00749455       0.01107092      -0.00273027       0.00756475
11
Properties=species:S:1:pos:R:3:mp2_forces:R:3:forces:R:3 R1=H R2=H R3=NO2 R4=H lg=Br nu=Cl rxn-id=29 mp2_energy=-90227.92178004362 energy=-90227.92178438423 free_energy=-90227.92178438423 pbc="F F F"
C        0.59951303      -0.04762638      -0.01175273       0.02965402       0.02396513      -0.00081601       0.02964282       0.02394445      -0.00081812
C        0.16676155       1.38575424       0.01548045      -0.04054266       0.00621796      -0.02686229      -0.04057267       0.00619494      -0.02690403
H        0.68521656       2.00796229      -0.71178631      -0.01082826       0.00105265      -0.00505500      -0.01082122       0.00106723      -0.00506140
Br      -2.83703225      -0.19103293      -0.48466118      -0.00974360      -0.02387313      -0.03981737      -0.00974308      -0.02387256      -0.03981742
Cl       2.38772531      -0.19477674       0.11915376       0.04084523      -0.02298777       0.01382538       0.04083375      -0.02297450       0.01382888
H        0.29764757      -0.48704291      -0.95787530      -0.04951150       0.00998409      -0.02273786      -0.04950437       0.00999516      -0.02272647
H        0.14047269      -0.60700672       0.79490902       0.03260639      -0.01127837       0.07099749       0.03261580      -0.01126677       0.07099307
H       -0.91503069       1.39240095      -0.16219000      -0.06805406      -0.01052331      -0.02519309      -0.06806231      -0.01052614      -0.02519519
N        0.37560636       2.04606070       1.33338566       0.05218677       0.04187239      -0.01759244       0.05210732       0.04171488      -0.01749348
O        0.40449519       3.27667346       1.32218956       0.04524710      -0.01009689       0.05035291       0.04532036      -0.00994800       0.05032425
O        0.45376139       1.34931111       2.34104919      -0.02185948      -0.00433274       0.00289826      -0.02181643      -0.00432868       0.00286991
16
Properties=species:S:1:pos:R:3:mp2_forces:R:3:forces:R:3 R1=CN R2=CN R3=CH3 R4=NO2 lg=Cl nu=F rxn-id=1441 mp2_energy=-29005.04194109031 energy=-29005.041941749452 free_energy=-29005.041941749452 pbc="F F F"
C        0.56674486      -0.04108293      -0.04766720       0.01806192      -0.02729314       0.02228652       0.01811186      -0.02728620       0.02232902
C        0.39841330       1.49489500      -0.14792256       0.00969123      -0.01064972      -0.00045392       0.00964276      -0.01063401      -0.00043451
H        1.36614587       1.82072861      -0.53957259       0.01710198       0.01297648      -0.01528327       0.01711024       0.01297617      -0.01528834
Cl      -2.28988305      -0.20781337      -0.34950850      -0.00579600       0.01490441       0.03480483      -0.00578872       0.01490944       0.03480284
F        1.94947753      -0.15985228       0.28444946       0.02220455       0.00089935      -0.03579201       0.02219434       0.00090212      -0.03579561
C        0.41065504      -0.81886529      -1.28242082       0.01291717       0.05183642       0.02292109       0.01292158       0.05179436       0.02284952
N        0.56385500      -1.52068956      -2.21329987      -0.02358348      -0.00210092      -0.01898425      -0.02359599      -0.00208276      -0.01895699
C       -0.12221421      -0.66246572       1.09323021      -0.01427055      -0.01996811      -0.00979928      -0.01429164      -0.01995429      -0.00982730
N       -0.25607320      -1.16433030       2.15122429       0.01476809      -0.00933516       0.06589953       0.01476993      -0.00935415       0.06594118
C        0.11992608       2.11752138       1.19957944      -0.01995411      -0.01667370      -0.00998200      -0.01994519      -0.01667976      -0.00998775
H       -0.88957873       1.85529294       1.51392893      -0.00678052       0.00652234       0.03346185      -0.00679174       0.00651854       0.03346326
H        0.84356284       1.73811033       1.92499029      -0.03138501      -0.01181592      -0.01430136      -0.03137989      -0.01181924      -0.01429433
H        0.21128951       3.20270272       1.14058061      -0.02407686      -0.02857137       0.00013583      -0.02407608      -0.02856655       0.00013381
N       -0.55049584       1.99619671      -1.20407665      -0.01783110      -0.01403144      -0.01260592      -0.01783871      -0.01410108      -0.01269305
O       -1.34861146       2.86849054      -0.88677415       0.01983196       0.01488409      -0.05146485       0.01985128       0.01491589      -0.05145504
O       -0.34605428       1.58654020      -2.34119032       0.02910074       0.03841639      -0.01084278       0.02910597       0.03846152      -0.01078672
16
Properties=species:S:1:pos:R:3:mp2_forces:R:3:forces:R:3 R1=CN R2=CN R3=CH3 R4=NH2 lg=Cl nu=F rxn-id=1452 mp2_energy=-24952.66892450319 energy=-24952.668925666232 free_energy=-24952.668925666232 pbc="F F F"
C        0.51504885      -0.02456919      -0.03724639      -0.00529471       0.02914487       0.01031472      -0.00528426       0.02912606       0.01024727
C        0.15215948       1.48318099      -0.11567721      -0.00193834       0.01951993      -0.02953845      -0.00194817       0.01954728      -0.02953655
H        1.11441095       1.93731009      -0.37947476       0.03433312      -0.02098581      -0.00905303       0.03433279      -0.02099260      -0.00905288
Cl      -2.72606142      -0.43301761      -0.11348912      -0.03055247       0.01699404       0.02702386      -0.03055209       0.01699731       0.02701637
F        1.90390341      -0.07162923       0.22293433       0.00291782      -0.02535410      -0.02175114       0.00292521      -0.02536267      -0.02173636
C        0.31807860      -0.74236088      -1.30839290       0.00798105       0.02123183       0.01206110       0.00797412       0.02127364       0.01215738
N        0.33809989      -1.36062009      -2.30700249       0.01688066       0.03446146       0.03391690       0.01688982       0.03443478       0.03384278
C       -0.07855955      -0.75290941       1.09895186       0.04241619      -0.00913973      -0.00342556       0.04244725      -0.00918136      -0.00332800
N       -0.21515105      -1.30547139       2.12815816      -0.01387644      -0.03003639       0.01743975      -0.01391114      -0.03000563       0.01737641
C       -0.28152053       2.00880604       1.25189490      -0.00950479      -0.01006065      -0.00406839      -0.00951184      -0.01004495      -0.00406125
H       -1.26137856       1.59925440       1.50185123      -0.01740949      -0.00528137       0.00968320      -0.01740083      -0.00528116       0.00968084
H        0.43340056       1.73914331       2.03515298       0.00480549       0.00279153       0.00761924       0.00480476       0.00278981       0.00762239
H       -0.34652163       3.10109237       1.21450813      -0.01963885      -0.01336249      -0.02057357      -0.01963792      -0.01337700      -0.02057298
N       -0.75750499       1.73925671      -1.21764759      -0.01620052      -0.01583460      -0.04392005      -0.01618453      -0.01584756      -0.04393717
H       -0.97184044       2.72992630      -1.23962261       0.02404958       0.00836627       0.03015383       0.02403416       0.00838994       0.03016466