21
Lattice="1.0 0.0 0.0 0.0 1.0 0.0 0.0 0.0 1.0" Properties=species:S:1:pos:R:3:mp2_forces:R:3:forces:R:3 mp2_energy=-25669.004809123442 energy=-25674.00000887593 free_energy=-25674.00000887593 pbc="F F F"
C        0.16449841      -0.22688921      -0.00019392       0.02520861      -0.02838867       0.00005940       0.00177141      -0.00466653      -0.00515134
C        1.63540084       0.07834407       0.03041571      -0.03334038      -0.00005276       0.00015753      -0.00070580       0.00362097      -0.00222587
H        2.15938099      -0.83584724       0.30815559      -0.02379320       0.02684727      -0.00003962       0.00513300       0.00198689      -0.01552557
F       -0.55437544       0.98518397      -0.28480843       0.00764467      -0.04609678       0.00057088      -0.00396999      -0.00928353      -0.01023889
Cl       0.88110393      -3.40190001       0.06022632      -0.00303207       0.00327824       0.00000605       0.00298302      -0.00766322       0.02059906
H       -0.10155779      -0.93710681      -0.77480791       0.02531842       0.02018914       0.01193200       0.00803442      -0.00751329      -0.00402454
H       -0.20771098      -0.58497555       0.95679826       0.02518310       0.02041626      -0.01261682       0.00145788      -0.00420912      -0.00579310
H        1.85544460       0.86509803       0.75546666      -0.01807683      -0.00921250      -0.02739735      -0.00291592      -0.00524533       0.00938272
H        1.98705563       0.39711819      -0.95255796      -0.01896744      -0.00939623       0.02743771      -0.00325514       0.02050384       0.00135400
O       -3.16145780       2.09100262       0.21866238       0.01788502       0.00752596       0.00024092       0.02398902       0.04045476       0.00635658
H       -2.92417924       2.81515577      -0.35891826      -0.00005808      -0.00429745      -0.00004192       0.02804823       0.01287895      -0.02456182
H       -2.46067368       1.44501356       0.11382667      -0.01992517       0.01473028      -0.00017627       0.00926455       0.02199541       0.01706540
O        0.42529097       3.67715624      -0.24151798      -0.00762941      -0.01045076       0.00072020      -0.04567442       0.00140192       0.00151353
H        0.07011760       3.85317269       0.62870251       0.00884785       0.01126170      -0.00104918      -0.00412384      -0.02951754       0.02361454
H        0.27826701       2.74147086      -0.39541869       0.00793100       0.02846349       0.00013742      -0.03099053       0.00143283      -0.01365632
O       -1.34618386      -5.74828085      -0.03440103       0.00087592      -0.00433965      -0.00013380      -0.00561584      -0.00305274      -0.00242627
H       -0.57690107      -6.31651684      -0.03376764      -0.01595972      -0.00288001       0.00008316      -0.01401706      -0.01513092      -0.00023471
H       -0.95378319      -4.86662220      -0.00781797      -0.00237884      -0.01175777       0.00009761       0.00594475      -0.00877758       0.00331048
O        3.94866177      -4.38993112      -0.04717063       0.00214457       0.00063924      -0.00006669       0.00617242       0.00085537      -0.00515555
H        3.63384110      -5.29000368       0.02466798       0.01577206       0.00171354      -0.00000083       0.01727713      -0.00248414       0.00543558
H        3.13196650      -3.87289846      -0.04320572       0.00634992      -0.00819253       0.00007960       0.00119272      -0.00758699       0.00036207
21
Lattice="1.0 0.0 0.0 0.0 1.0 0.0 0.0 0.0 1.0" Properties=species:S:1:pos:R:3:mp2_forces:R:3:forces:R:3 mp2_energy=-25669.004809123442 energy=-25674.110975383155 free_energy=-25674.110975383155 stress="7.497041381802362e-09 -4.777665927508347e-09 1.9155289639684613e-09 -4.777665927508347e-09 2.4311011491045072e-08 5.175485703640219e-09 1.9155289639684613e-09 5.175485703640219e-09 -3.428598216345532e-09" pbc="F F F"
C        0.11736793      -0.33495395      -0.12120876       0.02520861      -0.02838867       0.00005940       0.00017017      -0.00108387      -0.00361576
C        1.51967879       0.15088700       0.10293858      -0.03334038      -0.00005276       0.00015753      -0.00164228      -0.00088450       0.00726453
H        2.15049658      -0.71980500       0.27624474      -0.02379320       0.02684727      -0.00003962      -0.00180035      -0.00159920       0.00427419
F       -0.68822890       0.82094675      -0.40450632       0.00764467      -0.04609678       0.00057088       0.00057287      -0.00056656      -0.00196305
Cl       1.01094809      -3.38955197       0.34063854      -0.00303207       0.00327824       0.00000605      -0.00119335       0.00007058      -0.00051994
H        0.03190755      -0.99887643      -0.97424285       0.02531842       0.02018914       0.01193200       0.00638181       0.00348613      -0.00783938
H       -0.31244101      -0.81006478       0.75765726       0.02518310       0.02041626      -0.01261682      -0.00447304      -0.00652965      -0.00885305
H        1.57475509       0.81104915       0.97252048      -0.01807683      -0.00921250      -0.02739735      -0.00636938      -0.00789791       0.01299004
H        1.87892645       0.69536864      -0.77433307      -0.01896744      -0.00939623       0.02743771       0.00219135       0.00573266       0.01286655
O       -2.84470554       2.40258438       0.43302499       0.01788502       0.00752596       0.00024092       0.00467853       0.00061331       0.00922862
H       -2.78345455       2.75065052      -0.45509566      -0.00005808      -0.00429745      -0.00004192       0.00338982      -0.00012800       0.00876172
H       -2.23662369       1.66100303       0.44374411      -0.01992517       0.01473028      -0.00017627       0.00344073      -0.00029815       0.00850150
O        0.23488363       3.44351449      -0.33194754      -0.00762941      -0.01045076       0.00072020      -0.00049543      -0.00256344      -0.01079204
H        0.26917065       3.27575427       0.60988213       0.00884785       0.01126170      -0.00104918       0.00229944      -0.01107345      -0.01229310
H        0.01527080       2.58871059      -0.71202935       0.00793100       0.02846349       0.00013742      -0.00624300       0.00177376      -0.01721878
O       -1.42374070      -5.62408849      -0.13527321       0.00087592      -0.00433965      -0.00013380      -0.00299690       0.00533907      -0.00110324
H       -0.60528315      -6.09986227       0.00223299      -0.01595972      -0.00288001       0.00008316      -0.00470565      -0.00378878       0.00223140
H       -1.14839205      -4.70528172      -0.06611037      -0.00237884      -0.01175777       0.00009761       0.00670354       0.00664403      -0.00075779
O        4.06648440      -4.33351095      -0.10062196       0.00214457       0.00063924      -0.00006669      -0.00033704       0.00465074      -0.00137092
H        3.82924010      -5.24536517       0.06306774       0.01577206       0.00171354      -0.00000083       0.00156426       0.00470169       0.00179937
H        3.22794583      -3.86136408      -0.00424654       0.00634992      -0.00819253       0.00007960      -0.00113610       0.00340154      -0.00159085
21
Lattice="1.0 0.0 0.0 0.0 1.0 0.0 0.0 0.0 1.0" Properties=species:S:1:pos:R:3:mp2_forces:R:3:forces:R:3 mp2_energy=-25669.004809123442 energy=-25674.11945267972 free_energy=-25674.11945267972 stress="-1.323943607988109e-09 -3.511836128419151e-09 8.390396102083548e-10 -3.511836128419151e-09 2.0168547499881753e-08 4.916090514695196e-09 8.390396102083548e-10 4.916090514695196e-09 -4.115508586337934e-09" pbc="F F F"
C        0.11838660      -0.32927438      -0.12940247       0.02520861      -0.02838867       0.00005940       0.00015907       0.00007590      -0.00279257
C        1.52110988       0.15575926       0.09257085      -0.03334038      -0.00005276       0.00015753      -0.00182884       0.00090697       0.00773126
H        2.15104201      -0.71438111       0.27048120      -0.02379320       0.02684727      -0.00003962      -0.00180666       0.00051905       0.00553974
F       -0.68724921       0.82683829      -0.41097482       0.00764467      -0.04609678       0.00057088       0.00010759      -0.00025898      -0.00307693
Cl       1.06358188      -3.37755013       0.39359881      -0.00303207       0.00327824       0.00000605       0.00255299       0.00086826       0.00415326
H        0.03086818      -0.99317838      -0.98246459       0.02531842       0.02018914       0.01193200       0.00672886       0.00327899      -0.00600461
H       -0.30992401      -0.80400232       0.75040957       0.02518310       0.02041626      -0.01261682      -0.00442868      -0.00425501      -0.00736176
H        1.57568207       0.82042742       0.95855246      -0.01807683      -0.00921250      -0.02739735      -0.00675187      -0.00520850       0.01286512
H        1.88205487       0.69568473      -0.78671534      -0.01896744      -0.00939623       0.02743771       0.00179977       0.00699579       0.01287780
O       -2.84503310       2.40127092       0.42809621       0.01788502       0.00752596       0.00024092       0.00382809       0.00112380       0.00888808
H       -2.78620543       2.75201884      -0.45911965      -0.00005808      -0.00429745      -0.00004192       0.00279266       0.00119250       0.00873076
H       -2.23286665       1.66295802       0.43619734      -0.01992517       0.01473028      -0.00017627       0.00216844      -0.00012120       0.00748859
O        0.23792552       3.45371158      -0.31534552      -0.00762941      -0.01045076       0.00072020      -0.00077647      -0.00240975      -0.01012229
H        0.26208029       3.30408055       0.62961616       0.00884785       0.01126170      -0.00104918       0.00700699      -0.01524808      -0.01204855
H        0.02893246       2.59078918      -0.68303892       0.00793100       0.02846349       0.00013742      -0.00764381       0.00304705      -0.01919730
O       -1.38513250      -5.74636858      -0.13164107       0.00087592      -0.00433965      -0.00013380       0.00200718      -0.00410792      -0.00050091
H       -0.46165243      -5.93050990       0.04182324      -0.01595972      -0.00288001       0.00008316       0.00552877       0.01444695       0.00395843
H       -1.43254397      -4.78949028      -0.12416287      -0.00237884      -0.01175777       0.00009761      -0.01684330      -0.00453167      -0.00661581
O        4.07852445      -4.36359137      -0.11296998       0.00214457       0.00063924      -0.00006669       0.00148352       0.00072284      -0.00356523
H        3.82045172      -5.26727544       0.06402503       0.01577206       0.00171354      -0.00000083       0.00187122       0.00160373       0.00156809
H        3.25417366      -3.87017288      -0.00719970       0.00634992      -0.00819253       0.00007960       0.00204448       0.00135929      -0.00251517
21
Lattice="1.0 0.0 0.0 0.0 1.0 0.0 0.0 0.0 1.0" Properties=species:S:1:pos:R:3:mp2_forces:R:3:forces:R:3 mp2_energy=-25669.004809123442 energy=-25674.11477799038 free_energy=-25674.11477799038 stress="-7.078345370341727e-09 -2.381305184026945e-09 1.4039306609859767e-10 -2.381305184026945e-09 2.413713259983849e-08 4.565003390849312e-09 1.4039306609859767e-10 4.565003390849312e-09 -3.925063510525908e-09" pbc="F F F"
C        0.11887744      -0.32920545      -0.14256228       0.02520861      -0.02838867       0.00005940      -0.00026176       0.00003943      -0.00272029
C        1.52168970       0.15589619       0.07866950      -0.03334038      -0.00005276       0.00015753      -0.00235252       0.00110971       0.00781053
H        2.15204789      -0.71365296       0.25878738      -0.02379320       0.02684727      -0.00003962      -0.00234760       0.00092805       0.00646999
F       -0.68675169       0.82902913      -0.41712517       0.00764467      -0.04609678       0.00057088      -0.00033865      -0.00060742      -0.00405776
Cl       1.04481632      -3.37590895       0.38939975      -0.00303207       0.00327824       0.00000605       0.00665705       0.00145567       0.00553526
H        0.02921589      -0.98896140      -0.99868098       0.02531842       0.02018914       0.01193200       0.00659872       0.00249662      -0.00537286
H       -0.30755179      -0.80767970       0.73615236       0.02518310       0.02041626      -0.01261682      -0.00498175      -0.00364820      -0.00700946
H        1.57433368       0.82360277       0.94225001      -0.01807683      -0.00921250      -0.02739735      -0.00763211      -0.00421373       0.01237231
H        1.88334282       0.69400780      -0.80135760      -0.01896744      -0.00939623       0.02743771       0.00145571       0.00656134       0.01262735
O       -2.84387192       2.39740770       0.42469083       0.01788502       0.00752596       0.00024092       0.00362334       0.00131631       0.00894745
H       -2.79002046       2.75115717      -0.46163946      -0.00005808      -0.00429745      -0.00004192       0.00271290       0.00209205       0.00911226
H       -2.22787321       1.66215183       0.42816217      -0.01992517       0.01473028      -0.00017627       0.00147182      -0.00035176       0.00683316
O        0.24261814       3.46177926      -0.29579093      -0.00762941      -0.01045076       0.00072020      -0.00050621      -0.00302104      -0.00954849
H        0.25763706       3.33684603       0.65266168       0.00884785       0.01126170      -0.00104918       0.00949177      -0.01810586      -0.01147867
H        0.04574925       2.58848614      -0.64558722       0.00793100       0.02846349       0.00013742      -0.00834154       0.00289436      -0.01992862
O       -1.38010991      -5.75047209      -0.12440276       0.00087592      -0.00433965      -0.00013380       0.00175651      -0.00700708      -0.00065982
H       -0.46693179      -5.97707494       0.05199736      -0.01595972      -0.00288001       0.00008316       0.01050057       0.01951919       0.00517152
H       -1.38178126      -4.79208870      -0.11284122      -0.00237884      -0.01175777       0.00009761      -0.02723141      -0.00383545      -0.00899250
O        4.06085931      -4.35833681      -0.10485892       0.00214457       0.00063924      -0.00006669       0.00308394      -0.00000388      -0.00363629
H        3.80230234      -5.26330904       0.06470618       0.01577206       0.00171354      -0.00000083       0.00262396       0.00106872       0.00147580
H        3.23560850      -3.86592993      -0.00029474       0.00634992      -0.00819253       0.00007960       0.00401728       0.00131296      -0.00295087
21
Lattice="1.0 0.0 0.0 0.0 1.0 0.0 0.0 0.0 1.0" Properties=species:S:1:pos:R:3:mp2_forces:R:3:forces:R:3 mp2_energy=-25669.004809123442 energy=-25674.10662006667 free_energy=-25674.10662006667 stress="-1.5702600791329268e-09 -1.9921443108153636e-09 6.887297215344191e-10 -1.9921443108153636e-09 3.097504107605145e-08 4.790293423555221e-09 6.887297215344191e-10 4.790293423555221e-09 -3.2889533630482073e-09" pbc="F F F"
C        0.11804015      -0.33316828      -0.14388562       0.02520861      -0.02838867       0.00005940      -0.00028262      -0.00086058      -0.00279165
C        1.52040643       0.15297669       0.07849289      -0.03334038      -0.00005276       0.00015753      -0.00242539       0.00036525       0.00781696
H        2.15168614      -0.71605791       0.25876569      -0.02379320       0.02684727      -0.00003962      -0.00223185       0.00028382       0.00644765
F       -0.68747734       0.82576130      -0.41751200       0.00764467      -0.04609678       0.00057088      -0.00034308      -0.00138386      -0.00402295
Cl       1.01368908      -3.38128307       0.37003983      -0.00303207       0.00327824       0.00000605       0.00292978       0.00017975       0.00130504
H        0.02895337      -0.99179803      -1.00086946       0.02531842       0.02018914       0.01193200       0.00659242       0.00175355      -0.00554723
H       -0.30883679      -0.81275339       0.73400292       0.02518310       0.02041626      -0.01261682      -0.00505707      -0.00459022      -0.00713868
H        1.57149814       0.82094710       0.94196432      -0.01807683      -0.00921250      -0.02739735      -0.00785707      -0.00491888       0.01234987
H        1.88198581       0.69166786      -0.80122610      -0.01896744      -0.00939623       0.02743771       0.00126912       0.00594782       0.01266730
O       -2.84319602       2.39630382       0.42383215       0.01788502       0.00752596       0.00024092       0.00367094       0.00081141       0.00905442
H       -2.79043475       2.74898565      -0.46299340      -0.00005808      -0.00429745      -0.00004192       0.00283696       0.00184212       0.00936966
H       -2.22699323       1.66120068       0.42753545      -0.01992517       0.01473028      -0.00017627       0.00149464      -0.00093300       0.00677114
O        0.24343540       3.46003412      -0.29536801      -0.00762941      -0.01045076       0.00072020      -0.00043626      -0.00358149      -0.00977443
H        0.25728898       3.33974022       0.65366375       0.00884785       0.01126170      -0.00104918       0.00972561      -0.01802032      -0.01139318
H        0.04771798       2.58506314      -0.64165386       0.00793100       0.02846349       0.00013742      -0.00830551       0.00217890      -0.01954309
O       -1.39654969      -5.68939984      -0.12593071       0.00087592      -0.00433965      -0.00013380      -0.00157498      -0.00159911      -0.00139655
H       -0.53854919      -6.07851088       0.04080646      -0.01595972      -0.00288001       0.00008316       0.00774362       0.01048893       0.00507123
H       -1.21933301      -4.74661897      -0.08080005      -0.00237884      -0.01175777       0.00009761      -0.01471144       0.00540851      -0.00592684
O        4.04697727      -4.34329251      -0.10183367       0.00214457       0.00063924      -0.00006669       0.00197624       0.00224026      -0.00248962
H        3.79841192      -5.25168099       0.06435198       0.01577206       0.00171354      -0.00000083       0.00327769       0.00260917       0.00151148
H        3.21548565      -3.86037269       0.00095339       0.00634992      -0.00819253       0.00007960       0.00170824       0.00177797      -0.00234053
21
Lattice="1.0 0.0 0.0 0.0 1.0 0.0 0.0 0.0 1.0" Properties=species:S:1:pos:R:3:mp2_forces:R:3:forces:R:3 mp2_energy=-25669.004809123442 energy=-25674.116101207394 free_energy=-25674.116101207394 stress="-2.2868392079934566e-09 -8.344359034222641e-09 8.475230316957429e-10 -8.344359034222641e-09 2.190033413918575e-08 4.675143969537766e-09 8.475230316957429e-10 4.675143969537766e-09 -2.590054132808176e-09" pbc="F F F"
C        0.11723292      -0.32949957      -0.14098273       0.02520861      -0.02838867       0.00005940       0.00043028      -0.00062412      -0.00289309
C        1.51890841       0.15851272       0.08105481      -0.03334038      -0.00005276       0.00015753      -0.00180411       0.00100344       0.00736283
H        2.15064672      -0.71027001       0.26198542      -0.02379320       0.02684727      -0.00003962      -0.00130750       0.00102528       0.00556940
F       -0.68913184       0.82824333      -0.41713400       0.00764467      -0.04609678       0.00057088      -0.00006391      -0.00135253      -0.00377375
Cl       0.96329547      -3.38150651       0.34674779      -0.00303207       0.00327824       0.00000605       0.00166991      -0.00034968      -0.00219702
H        0.02934294      -0.99050492      -0.99610728       0.02531842       0.02018914       0.01193200       0.00727928       0.00202474      -0.00566644
H       -0.30921037      -0.80857033       0.73733782       0.02518310       0.02041626      -0.01261682      -0.00389939      -0.00465710      -0.00719358
H        1.56893265       0.82765517       0.94370387      -0.01807683      -0.00921250      -0.02739735      -0.00709648      -0.00449400       0.01205590
H        1.87981646       0.69645590      -0.79937953      -0.01896744      -0.00939623       0.02743771       0.00140679       0.00689965       0.01219669
O       -2.84383118       2.40226173       0.41943177       0.01788502       0.00752596       0.00024092       0.00353838       0.00033665       0.00922716
H       -2.79009952       2.75116733      -0.46884077      -0.00005808      -0.00429745      -0.00004192       0.00319875       0.00198384       0.00977853
H       -2.22824966       1.66667249       0.42661746      -0.01992517       0.01473028      -0.00017627       0.00134666      -0.00140275       0.00679491
O        0.24321219       3.46262259      -0.29719197      -0.00762941      -0.01045076       0.00072020      -0.00092277      -0.00309118      -0.00999165
H        0.25928941       3.33991991       0.65154010       0.00884785       0.01126170      -0.00104918       0.00899842      -0.01673889      -0.01137411
H        0.04738038       2.58815811      -0.64476422       0.00793100       0.02846349       0.00013742      -0.00858550       0.00261025      -0.01911446
O       -1.40102782      -5.58044290      -0.12114243       0.00087592      -0.00433965      -0.00013380      -0.00440285       0.00379479      -0.00058110
H       -0.74221920      -6.26495637      -0.01229513      -0.01595972      -0.00288001       0.00008316      -0.00982768      -0.00126670       0.00054608
H       -0.89418778      -4.76582526      -0.00891966      -0.00237884      -0.01175777       0.00009761       0.00125701       0.00038726      -0.00092762
O        4.02734407      -4.32651305      -0.10215167       0.00214457       0.00063924      -0.00006669       0.00285525       0.00482679      -0.00018849
H        3.78479084      -5.23616071       0.06570504       0.01577206       0.00171354      -0.00000083       0.00361297       0.00496854       0.00169526
H        3.19197123      -3.84967562      -0.00287873       0.00634992      -0.00819253       0.00007960       0.00231650       0.00411572      -0.00132543
21
Lattice="1.0 0.0 0.0 0.0 1.0 0.0 0.0 0.0 1.0" Properties=species:S:1:pos:R:3:mp2_forces:R:3:forces:R:3 mp2_energy=-25669.004809123442 energy=-25674.11681484874 free_energy=-25674.11681484874 stress="-2.3619072403129136e-09 -5.976085025650653e-09 5.340035839000982e-10 -5.976085025650653e-09 3.103044344434893e-08 4.466301564252133e-09 5.340035839000982e-10 4.466301564252133e-09 -2.565058075648068e-09" pbc="F F F"
C        0.13119335      -0.33723894      -0.15806191       0.02520861      -0.02838867       0.00005940      -0.00037126      -0.00070792      -0.00298944
C        1.53309397       0.15378898       0.05616163      -0.03334038      -0.00005276       0.00015753      -0.00252821       0.00070081       0.00750997
H        2.16956913      -0.71455362       0.22325347      -0.02379320       0.02684727      -0.00003962      -0.00236487       0.00066071       0.00638895
F       -0.68169844       0.82042764      -0.41609256       0.00764467      -0.04609678       0.00057088      -0.00063526      -0.00139014      -0.00427749
Cl       0.96313200      -3.39906370       0.29562016      -0.00303207       0.00327824       0.00000605       0.00102587      -0.00044034      -0.00497378
H        0.03799457      -0.98985486      -1.01903551       0.02531842       0.02018914       0.01193200       0.00639768       0.00178206      -0.00562683
H       -0.28577262      -0.82647280       0.71912118       0.02518310       0.02041626      -0.01261682      -0.00498984      -0.00436147      -0.00720481
H        1.58888660       0.81475330       0.92467625      -0.01807683      -0.00921250      -0.02739735      -0.00812995      -0.00421907       0.01172770
H        1.88440448       0.70137626      -0.82217117      -0.01896744      -0.00939623       0.02743771       0.00121987       0.00601658       0.01224730
O       -2.84362125       2.37324981       0.43811490       0.01788502       0.00752596       0.00024092       0.00409102       0.00041791       0.00968405
H       -2.79463698       2.73715459      -0.44434636      -0.00005808      -0.00429745      -0.00004192       0.00214738       0.00043701       0.00872657
H       -2.22332531       1.64153996       0.43170588      -0.01992517       0.01473028      -0.00017627       0.00160550      -0.00078159       0.00752272
O        0.23664022       3.46156838      -0.28491197      -0.00762941      -0.01045076       0.00072020      -0.00088527      -0.00394891      -0.00953815
H        0.24624630       3.35130598       0.66522833       0.00884785       0.01126170      -0.00104918       0.01189079      -0.01960198      -0.01059716
H        0.04680794       2.58273207      -0.62465042       0.00793100       0.02846349       0.00013742      -0.00804337       0.00208981      -0.01958818
O       -1.45985047      -5.55628841      -0.11643150       0.00087592      -0.00433965      -0.00013380      -0.00371040       0.00373264       0.00048599
H       -0.84140322      -6.27557378       0.00458229      -0.01595972      -0.00288001       0.00008316      -0.00363648       0.00384009       0.00098222
H       -0.91013749      -4.76737585      -0.02164903      -0.00237884      -0.01175777       0.00009761      -0.00325602       0.00365088      -0.00149574
O        4.05829414      -4.27836170      -0.03218686       0.00214457       0.00063924      -0.00006669       0.00328265       0.00461340       0.00090472
H        3.81555127      -5.19934294       0.05357445       0.01577206       0.00171354      -0.00000083       0.00457975       0.00425409       0.00116124
H        3.21283808      -3.81602632       0.04983470       0.00634992      -0.00819253       0.00007960       0.00231042       0.00325542      -0.00104985
21
Lattice="1.0 0.0 0.0 0.0 1.0 0.0 0.0 0.0 1.0" Properties=species:S:1:pos:R:3:mp2_forces:R:3:forces:R:3 mp2_energy=-25669.004809123442 energy=-25674.116200745004 free_energy=-25674.116200745004 stress="-2.930690745439606e-09 -6.406420420992216e-09 5.17688749592762e-10 -6.406420420992216e-09 3.055262573500746e-08 4.382176870914418e-09 5.17688749592762e-10 4.382176870914418e-09 -2.52833332230489e-09" pbc="F F F"
C        0.12971854      -0.33690962      -0.15611555       0.02520861      -0.02838867       0.00005940      -0.00028737      -0.00062562      -0.00289383
C        1.53211943       0.15338333       0.05653518      -0.03334038      -0.00005276       0.00015753      -0.00246997       0.00096517       0.00750433
H        2.16795671      -0.71508221       0.22538534      -0.02379320       0.02684727      -0.00003962      -0.00221794       0.00099167       0.00647095
F       -0.68227514       0.82098428      -0.41610099       0.00764467      -0.04609678       0.00057088      -0.00064789      -0.00139291      -0.00427526
Cl       0.96322221      -3.39643107       0.30906278      -0.00303207       0.00327824       0.00000605       0.00084863      -0.00046125      -0.00497574
H        0.03559744      -0.99120647      -1.01572730       0.02531842       0.02018914       0.01193200       0.00648819       0.00173306      -0.00547278
H       -0.28731076      -0.82401273       0.72222525       0.02518310       0.02041626      -0.01261682      -0.00483902      -0.00421745      -0.00700014
H        1.58859355       0.81631780       0.92346942      -0.01807683      -0.00921250      -0.02739735      -0.00816402      -0.00376342       0.01163969
H        1.88366088       0.69865737      -0.82312111      -0.01896744      -0.00939623       0.02743771       0.00122328       0.00623805       0.01213966
O       -2.84429327       2.37562355       0.43449531       0.01788502       0.00752596       0.00024092       0.00392902       0.00051158       0.00952197
H       -2.79415800       2.74023899      -0.44760161      -0.00005808      -0.00429745      -0.00004192       0.00201983       0.00024708       0.00868089
H       -2.22439969       1.64356342       0.42819669      -0.01992517       0.01473028      -0.00017627       0.00158474      -0.00079771       0.00759371
O        0.23784553       3.46213515      -0.28410505      -0.00762941      -0.01045076       0.00072020      -0.00092362      -0.00401361      -0.00949499
H        0.24510814       3.35465861       0.66635414       0.00884785       0.01126170      -0.00104918       0.01219858      -0.01984141      -0.01050558
H        0.04878904       2.58236251      -0.62190687       0.00793100       0.02846349       0.00013742      -0.00795128       0.00192120      -0.01963476
O       -1.45211593      -5.55807086      -0.12034245       0.00087592      -0.00433965      -0.00013380      -0.00405752       0.00327424       0.00037562
H       -0.83342653      -6.27647335       0.00457148      -0.01595972      -0.00288001       0.00008316      -0.00345270       0.00378668       0.00109405
H       -0.90437538      -4.76833126      -0.02113113      -0.00237884      -0.01175777       0.00009761      -0.00386856       0.00351120      -0.00168733
O        4.05383585      -4.28266791      -0.04047410       0.00214457       0.00063924      -0.00006669       0.00358816       0.00457380       0.00082190
H        3.81007834      -5.20272215       0.05203362       0.01577206       0.00171354      -0.00000083       0.00455921       0.00413571       0.00123682
H        3.21003533      -3.81827333       0.04663289       0.00634992      -0.00819253       0.00007960       0.00244024       0.00322395      -0.00113916
21
Lattice="1.0 0.0 0.0 0.0 1.0 0.0 0.0 0.0 1.0" Properties=species:S:1:pos:R:3:mp2_forces:R:3:forces:R:3 mp2_energy=-25669.004809123442 energy=-25674.111284281324 free_energy=-25674.111284281324 stress="-3.2002011423435014e-09 -9.003539386451559e-09 2.1836370374046606e-10 -9.003539386451559e-09 3.053460100864685e-08 4.038891625794457e-09 2.1836370374046606e-10 4.038891625794457e-09 -2.1289748355138505e-09" pbc="F F F"
C        0.11899313      -0.33480816      -0.14187256       0.02520861      -0.02838867       0.00005940       0.00040490      -0.00026725      -0.00195041