9
Lattice="1.0 0.0 0.0 0.0 1.0 0.0 0.0 0.0 1.0" Properties=species:S:1:pos:R:3:forces:R:3 R1=H R2=H R3=CH3 R4=CH3 leaving_group=Cl nucleophile=Cl rxn=sn2 config=rcc label=H_H_CH3_CH3_Cl_Cl_sn2_rcc conformation=0 reactant_id=H_H_CH3_CH3_Cl_none_-_r product_id=H_H_CH3_CH3_none_Cl_sn2_pc mp2_author_energy=-29302.391748605172 mp2_my_energy=0 hash=59123 address=T id=71 energy=-17372.33216497299 free_energy=-17372.33216497299 cell="(1,0,0), (0,1,0), (0,0,1)" pbc="F F F"
C        0.09142836      -0.02057665       0.00018700      -0.00383810       0.00153641      -0.00068481
C        1.58722280       0.14924827      -0.00111085       0.00020147      -0.00237977      -0.00061630
H        2.03195864      -0.84661872      -0.00635447      -0.00043287       0.00066109       0.00360198
F       -0.53491861       1.24651010      -0.01033438       0.00123778      -0.00105707       0.00337249
Cl       0.88543890      -3.39675651       0.00603569      -0.00050197      -0.00038193      -0.00016305
H       -0.24798218      -0.56713807      -0.87777751      -0.00113173       0.00148985       0.00279851
H       -0.24989953      -0.55273097       0.88632969       0.00349898      -0.00246302      -0.00540624
H        1.91405155       0.69490750       0.88785996      -0.00213133       0.00382493      -0.00088743
H        1.90859158       0.70242064      -0.88742268       0.00309776      -0.00123049      -0.00201515
9
Lattice="1.0 0.0 0.0 0.0 1.0 0.0 0.0 0.0 1.0" Properties=species:S:1:pos:R:3:forces:R:3 R1=H R2=H R3=CH3 R4=CH3 leaving_group=Cl nucleophile=Cl rxn=sn2 config=rcc label=H_H_CH3_CH3_Cl_Cl_sn2_rcc conformation=0 reactant_id=H_H_CH3_CH3_Cl_none_-_r product_id=H_H_CH3_CH3_none_Cl_sn2_pc mp2_author_energy=-29302.391748605172 mp2_my_energy=0 hash=59123 address=T id=71 energy=-17372.33153780439 free_energy=-17372.33153780439 cell="(1,0,0), (0,1,0), (0,0,1)" stress="-1.3047597682682353e-10 3.2170518464496663e-09 -4.5485991580187514e-10 3.2170518464496663e-09 -5.659616850034499e-10 9.157571050855137e-09 -4.5485991580187514e-10 9.157571050855137e-09 2.8453935348442816e-10" pbc="F F F"
C        0.09024689      -0.01882266       0.01467393      -0.00024622       0.00036233      -0.00110445
C        1.58652952       0.14825278       0.00993596      -0.00017303      -0.00034562      -0.00087730
H        2.02993598      -0.84660641       0.06523464      -0.00074824      -0.00101051      -0.00579813
F       -0.53399546       1.24813333      -0.03589695       0.00030210       0.00081625       0.00170616
Cl       0.89192654      -3.39930147      -0.08777269       0.00177254      -0.00012599       0.00719973
H       -0.25031949      -0.59533358      -0.84287064      -0.00059418       0.00255946      -0.00256059
H       -0.25224189      -0.51906885       0.91925307      -0.00047190      -0.00174041      -0.00229849
H        1.90951035       0.75034748       0.86340784       0.00050964      -0.00497293       0.00229359
H        1.91429907       0.64166497      -0.90855271      -0.00035072       0.00445743       0.00143948
9
Lattice="1.0 0.0 0.0 0.0 1.0 0.0 0.0 0.0 1.0" Properties=species:S:1:pos:R:3:forces:R:3 R1=H R2=H R3=CH3 R4=CH3 leaving_group=Cl nucleophile=Cl rxn=sn2 config=rcc label=H_H_CH3_CH3_Cl_Cl_sn2_rcc conformation=0 reactant_id=H_H_CH3_CH3_Cl_none_-_r product_id=H_H_CH3_CH3_none_Cl_sn2_pc mp2_author_energy=-29302.391748605172 mp2_my_energy=0 hash=59123 address=T id=71 energy=-17372.328542383613 free_energy=-17372.328542383613 cell="(1,0,0), (0,1,0), (0,0,1)" stress="-2.918658014116975e-10 1.144947625777825e-08 -5.664095549816077e-10 1.144947625777825e-08 -8.092167115173149e-09 1.4973184235272586e-08 -5.664095549816077e-10 1.4973184235272586e-08 1.158334941131759e-09" pbc="F F F"
C        0.08786031      -0.01516034       0.03126860      -0.00086249       0.00160613      -0.00152533
C        1.58479796       0.14598199       0.02241172      -0.00064249      -0.00090145      -0.00139782
H        2.02514160      -0.84514667       0.13697338      -0.00262585      -0.00347651      -0.01246148
F       -0.53168526       1.25086692      -0.06993961       0.00101885       0.00265133       0.00004957
Cl       0.90594192      -3.40525268      -0.19023416       0.00625316      -0.00298214       0.01160767
H       -0.25307182      -0.62669088      -0.80114384      -0.00175777       0.00341188      -0.00263686
H       -0.25770086      -0.47408158       0.95690284      -0.00179529       0.00069574      -0.00231935
H        1.90690159       0.80161232       0.83606376       0.00176557      -0.01067507       0.00601295
H        1.91770606       0.57713651      -0.92489023      -0.00135369       0.00967010       0.00267063
9
Lattice="1.0 0.0 0.0 0.0 1.0 0.0 0.0 0.0 1.0" Properties=species:S:1:pos:R:3:forces:R:3 R1=H R2=H R3=CH3 R4=CH3 leaving_group=Cl nucleophile=Cl rxn=sn2 config=rcc label=H_H_CH3_CH3_Cl_Cl_sn2_rcc conformation=0 reactant_id=H_H_CH3_CH3_Cl_none_-_r product_id=H_H_CH3_CH3_none_Cl_sn2_pc mp2_author_energy=-29302.391748605172 mp2_my_energy=0 hash=59123 address=T id=71 energy=-17372.323267548032 free_energy=-17372.323267548032 cell="(1,0,0), (0,1,0), (0,0,1)" stress="4.912185600719813e-10 1.9668461283653966e-08 -8.118538962802427e-10 1.9668461283653966e-08 -2.4861807095665968e-08 1.892980118569317e-08 -8.118538962802427e-10 1.892980118569317e-08 1.560936692948069e-09" pbc="F F F"
C        0.08768762      -0.01667267       0.04473295      -0.00142193       0.00337025      -0.00130652
C        1.58473136       0.14499892       0.03301956      -0.00114897      -0.00092347      -0.00157073
H        2.02713443      -0.83417715       0.21833096      -0.00464641      -0.00756787      -0.02361649
F       -0.53190869       1.24692995      -0.08273363       0.00160399       0.00409335      -0.00762975
Cl       0.90382971      -3.39526747      -0.28035725       0.01070155      -0.00936382       0.01426346
H       -0.25295263      -0.64738852      -0.77296835      -0.00211258       0.00037911       0.00105368
H       -0.25726981      -0.45354160       0.98147657      -0.00329447       0.00851479       0.00044986
H        1.90004153       0.86080611       0.79728990       0.00415644      -0.01870571       0.01392824
H        1.92459799       0.50357802      -0.94137827      -0.00383762       0.02020339       0.00442826
9
Lattice="1.0 0.0 0.0 0.0 1.0 0.0 0.0 0.0 1.0" Properties=species:S:1:pos:R:3:forces:R:3 R1=H R2=H R3=CH3 R4=CH3 leaving_group=Cl nucleophile=Cl rxn=sn2 config=rcc label=H_H_CH3_CH3_Cl_Cl_sn2_rcc conformation=0 reactant_id=H_H_CH3_CH3_Cl_none_-_r product_id=H_H_CH3_CH3_none_Cl_sn2_pc mp2_author_energy=-29302.391748605172 mp2_my_energy=0 hash=59123 address=T id=71 energy=-17372.31596735165 free_energy=-17372.31596735165 cell="(1,0,0), (0,1,0), (0,0,1)" stress="2.656587448916488e-09 2.3051439951728377e-08 -1.2885203373170884e-09 2.3051439951728377e-08 -4.314735315452991e-08 2.1569040199061917e-08 -1.2885203373170884e-09 2.1569040199061917e-08 1.5153149871436162e-09" pbc="F F F"
C        0.09020372      -0.02355699       0.04988101      -0.00154411       0.00475885      -0.00097749
C        1.58682424       0.14608529       0.03808259      -0.00142835      -0.00027628      -0.00155396
H        2.03623409      -0.81619516       0.28322720      -0.00584751      -0.01197796      -0.03500504
F       -0.53487128       1.23858349      -0.06776392       0.00173257       0.00464449      -0.01701397
Cl       0.88375141      -3.37314657      -0.32621449       0.01255041      -0.01624098       0.01587405
H       -0.24959384      -0.65027385      -0.77069225      -0.00119748      -0.00465003       0.00565994
H       -0.25093914      -0.46789189       0.98444049      -0.00407212       0.01697249       0.00413542
H        1.89027573       0.90979572       0.75956674       0.00618005      -0.02559949       0.02328834
H        1.93400658       0.44586555      -0.95311492      -0.00637346       0.03236889       0.00559271
9
Lattice="1.0 0.0 0.0 0.0 1.0 0.0 0.0 0.0 1.0" Properties=species:S:1:pos:R:3:forces:R:3 R1=H R2=H R3=CH3 R4=CH3 leaving_group=Cl nucleophile=Cl rxn=sn2 config=rcc label=H_H_CH3_CH3_Cl_Cl_sn2_rcc conformation=0 reactant_id=H_H_CH3_CH3_Cl_none_-_r product_id=H_H_CH3_CH3_none_Cl_sn2_pc mp2_author_energy=-29302.391748605172 mp2_my_energy=0 hash=59123 address=T id=71 energy=-17372.308852305665 free_energy=-17372.308852305665 cell="(1,0,0), (0,1,0), (0,0,1)" stress="5.399166690885904e-09 2.255162171988968e-08 -1.888463646765782e-09 2.255162171988968e-08 -6.099058576372535e-08 2.2379740471845635e-08 -1.888463646765782e-09 2.2379740471845635e-08 1.0445961430303378e-09" pbc="F F F"
C        0.09139529      -0.02864382       0.05179174      -0.00131618       0.00559606      -0.00071589
C        1.58806546       0.14529201       0.04030613      -0.00149636       0.00069571      -0.00146821
H        2.04142248      -0.80308325       0.32730269      -0.00606892      -0.01538202      -0.04259617
F       -0.53646750       1.23395753      -0.04883026       0.00177948       0.00490971      -0.02412460
Cl       0.87295319      -3.35114339      -0.34888639       0.01224459      -0.02264491       0.01635781
H       -0.24937971      -0.64531152      -0.77554448       0.00005565      -0.00899299       0.00903300
H       -0.24714812      -0.48553409       0.98106124      -0.00397898       0.02298330       0.00725903
H        1.88355698       0.94044980       0.73032409       0.00690981      -0.02895673       0.03071124
H        1.94149345       0.40328233      -0.96011231      -0.00812909       0.04179187       0.00554379
9
Lattice="1.0 0.0 0.0 0.0 1.0 0.0 0.0 0.0 1.0" Properties=species:S:1:pos:R:3:forces:R:3 R1=H R2=H R3=CH3 R4=CH3 leaving_group=Cl nucleophile=Cl rxn=sn2 config=rcc label=H_H_CH3_CH3_Cl_Cl_sn2_rcc conformation=0 reactant_id=H_H_CH3_CH3_Cl_none_-_r product_id=H_H_CH3_CH3_none_Cl_sn2_pc mp2_author_energy=-29302.391748605172 mp2_my_energy=0 hash=59123 address=T id=71 energy=-17372.300682405858 free_energy=-17372.300682405858 cell="(1,0,0), (0,1,0), (0,0,1)" stress="9.017832122087082e-09 2.1296567346450124e-08 -2.3994974596513757e-09 2.1296567346450124e-08 -7.429624688278749e-08 2.301790669329957e-08 -2.3994974596513757e-09 2.301790669329957e-08 -4.1928763009266284e-10" pbc="F F F"
C        0.09226990      -0.03299756       0.05308565      -0.00097523       0.00606060      -0.00050100
C        1.58919816       0.14460746       0.04199155      -0.00157387       0.00146210      -0.00137549
H        2.04614375      -0.78884445       0.36825211      -0.00615697      -0.01990754      -0.04860097
F       -0.53799343       1.23027797      -0.02776286       0.00198567       0.00528649      -0.03062521
Cl       0.86376422      -3.33296089      -0.36731987       0.01149901      -0.02673368       0.01657716
H       -0.24993365      -0.63735327      -0.78235830       0.00134274      -0.01353824       0.01188675
H       -0.24403492      -0.50430613       0.97571644      -0.00347703       0.02789391       0.01047244
H        1.87757320       0.96794188       0.70108720       0.00696407      -0.03060013       0.03812932
H        1.94890428       0.36290058      -0.96527947      -0.00960838       0.05007649       0.00403699
9
Lattice="1.0 0.0 0.0 0.0 1.0 0.0 0.0 0.0 1.0" Properties=species:S:1:pos:R:3:forces:R:3 R1=H R2=H R3=CH3 R4=CH3 leaving_group=Cl nucleophile=Cl rxn=sn2 config=rcc label=H_H_CH3_CH3_Cl_Cl_sn2_rcc conformation=0 reactant_id=H_H_CH3_CH3_Cl_none_-_r product_id=H_H_CH3_CH3_none_Cl_sn2_pc mp2_author_energy=-29302.391748605172 mp2_my_energy=0 hash=59123 address=T id=71 energy=-17372.283435242323 free_energy=-17372.283435242323 cell="(1,0,0), (0,1,0), (0,0,1)" stress="1.4988960517006273e-08 1.8254550650221066e-08 -3.116196909627456e-09 1.8254550650221066e-08 -1.0437611911591536e-07 2.2163047609839446e-08 -3.116196909627456e-09 2.2163047609839446e-08 -2.3668674803659133e-09" pbc="F F F"
C        0.09303334      -0.04024273       0.05466571      -0.00038282       0.00714909      -0.00009543
C        1.59095080       0.14223741       0.04431452      -0.00166476       0.00328619      -0.00115956
H        2.05323984      -0.76161455       0.43751301      -0.00649446      -0.02700003      -0.05522227
F       -0.54038676       1.22435615       0.01284190       0.00192768       0.00677482      -0.03952707
Cl       0.85155351      -3.29880472      -0.39478037       0.00981555      -0.03620838       0.01592135
H       -0.25278877      -0.61912105      -0.79661262       0.00350407      -0.01994397       0.01544096
H       -0.24020717      -0.53933948       0.96321954      -0.00217067       0.03445225       0.01551849
H        1.86857848       1.01085917       0.64715435       0.00688105      -0.03035365       0.04882085
H        1.96191825       0.29093539      -0.97090359      -0.01141563       0.06184369       0.00030268
9
Lattice="1.0 0.0 0.0 0.0 1.0 0.0 0.0 0.0 1.0" Properties=species:S:1:pos:R:3:forces:R:3 R1=H R2=H R3=CH3 R4=CH3 leaving_group=Cl nucleophile=Cl rxn=sn2 config=rcc label=H_H_CH3_CH3_Cl_Cl_sn2_rcc conformation=0 reactant_id=H_H_CH3_CH3_Cl_none_-_r product_id=H_H_CH3_CH3_none_Cl_sn2_pc mp2_author_energy=-29302.391748605172 mp2_my_energy=0 hash=59123 address=T id=71 energy=-17372.253805121338 free_energy=-17372.253805121338 cell="(1,0,0), (0,1,0), (0,0,1)" stress="1.7934088270656837e-08 1.7215902512999988e-08 -3.377895843203352e-09 1.7215902512999988e-08 -1.7477272359597524e-07 1.2504497727558017e-08 -3.377895843203352e-09 1.2504497727558017e-08 -4.263156440780489e-09" pbc="F F F"
C        0.09295621      -0.05072457       0.05580318      -0.00032914       0.01104220       0.00079461
C        1.59320323       0.13638227       0.04666759      -0.00202527       0.00776492      -0.00031234
H        2.06249888      -0.71697413       0.53146177      -0.01013652      -0.03355632      -0.05436915
F       -0.54300840       1.21501524       0.07681748      -0.00143776       0.01107543      -0.04466503
Cl       0.83976500      -3.24260872      -0.42623252       0.00986253      -0.05926456       0.01105916
H       -0.25993934      -0.58620999      -0.81999870       0.00601537      -0.02304310       0.01728345
H       -0.23782167      -0.59266499       0.93964173      -0.00022906       0.03969010       0.02012206
H        1.85781940       1.06183690       0.56461829       0.01127728      -0.02304739       0.05599991
H        1.98041820       0.18521359      -0.97136637      -0.01299742       0.06933872      -0.00591266
9
Lattice="1.0 0.0 0.0 0.0 1.0 0.0 0.0 0.0 1.0" Properties=species:S:1:pos:R:3:forces:R:3 R1=H R2=H R3=CH3 R4=CH3 leaving_group=Cl nucleophile=Cl rxn=sn2 config=rcc label=H_H_CH3_CH3_Cl_Cl_sn2_rcc conformation=0 reactant_id=H_H_CH3_CH3_Cl_none_-_r product_id=H_H_CH3_CH3_none_Cl_sn2_pc mp2_author_energy=-29302.391748605172 mp2_my_energy=0 hash=59123 address=T id=71 energy=-17372.2098630138 free_energy=-17372.2098630138 cell="(1,0,0), (0,1,0), (0,0,1)" stress="1.6723531198955325e-08 4.0201527807568805e-08 -2.8140886385448254e-09 4.0201527807568805e-08 -3.694173843369143e-07 -4.158458381952687e-08 -2.8140886385448254e-09 -4.158458381952687e-08 -2.1910622564077877e-09" pbc="F F F"
C        0.09267349      -0.07014099       0.05537409      -0.00669705       0.03472702       0.00526603
C        1.59650213       0.12115830       0.04776871      -0.00873881       0.02485391       0.00411621
H        2.08020209      -0.65107236       0.64058694      -0.04244320      -0.03492402      -0.03551969
F       -0.53978063       1.19620347       0.16304707      -0.02277524       0.02084118      -0.03582321
Cl       0.82629659      -3.13441568      -0.45381626       0.03160397      -0.11900185      -0.01166765
H       -0.27333259      -0.54038492      -0.85161894       0.01355697      -0.01798274       0.01933172
H       -0.23879594      -0.66596117       0.90259579       0.00504500       0.04146995       0.01591561
H        1.83703860       1.10781819       0.45304697       0.06041917       0.00214302       0.04541762
H        2.00508777       0.04606076      -0.95957192      -0.02997081       0.04787353      -0.00703664
9
Lattice="1.0 0.0 0.0 0.0 1.0 0.0 0.0 0.0 1.0" Properties=species:S:1:pos:R:3:forces:R:3 R1=H R2=H R3=CH3 R4=CH3 leaving_group=Cl nucleophile=Cl rxn=sn2 config=rcc label=H_H_CH3_CH3_Cl_Cl_sn2_rcc conformation=0 reactant_id=H_H_CH3_CH3_Cl_none_-_r product_id=H_H_CH3_CH3_none_Cl_sn2_pc mp2_author_energy=-29302.391748605172 mp2_my_energy=0 hash=59123 address=T id=71 energy=-17371.962217303237 free_energy=-17371.962217303237 cell="(1,0,0), (0,1,0), (0,0,1)" stress="4.4777746799848336e-07 -3.0548969733541486e-07 -3.45276747447962e-08 -3.0548969733541486e-07 -2.806849151265881e-06 -5.952158715923881e-07 -3.45276747447962e-08 -5.952158715923881e-07 1.9959114809110095e-07" pbc="F F F"
C        0.10698421      -0.14832003       0.04479514      -0.25155927       0.66510168       0.10348210
C        1.61598476       0.06329834       0.03907792      -0.12569093       0.24993045       0.03949631
H        2.17539185      -0.56194850       0.73646007      -0.35226702      -0.04091995      -0.03788465
F       -0.48780568       1.14994376       0.25405047      -0.01162153      -0.12848142      -0.00643211
Cl       0.76038052      -2.86341144      -0.43793360       0.16391092      -0.82661774      -0.15121634
H       -0.30734952      -0.49179693      -0.89671325       0.12124998      -0.13628620       0.10512588
H       -0.25192157      -0.76335773       0.86459427       0.09765593      -0.02499129      -0.13340791
H        1.69930942       1.10801393       0.33330870       0.58314277       0.25495455       0.04940131
H        2.07491752      -0.08315581      -0.94022725      -0.22482085      -0.01269006       0.03143540
9
Lattice="1.0 0.0 0.0 0.0 1.0 0.0 0.0 0.0 1.0" Properties=species:S:1:pos:R:3:forces:R:3 R1=H R2=H R3=CH3 R4=CH3 leaving_group=Cl nucleophile=Cl rxn=sn2 config=rcc label=H_H_CH3_CH3_Cl_Cl_sn2_rcc conformation=0 reactant_id=H_H_CH3_CH3_Cl_none_-_r product_id=H_H_CH3_CH3_none_Cl_sn2_pc mp2_author_energy=-29302.391748605172 mp2_my_energy=0 hash=59123 address=T id=71 energy=-17371.37496455723 free_energy=-17371.37496455723 cell="(1,0,0), (0,1,0), (0,0,1)" stress="1.1057760586434535e-06 -1.291452652184172e-06 -1.896265070843016e-07 -1.291452652184172e-06 -2.6596227390271037e-06 -6.89767200081929e-07 -1.896265070843016e-07 -6.89767200081929e-07 2.1999312028896782e-07" pbc="F F F"
C        0.15058732      -0.26395577       0.02667335      -1.05863032       2.74552317       0.45339480
C        1.63786935       0.01989180       0.03227921      -0.19719266       0.29825254       0.03884304
H        2.23624334      -0.55377896       0.74417024      -0.39091278      -0.07345078      -0.05703934
F       -0.48590461       1.17215925       0.25630726       0.55692056      -1.20877666      -0.15272412
Cl       0.73202432      -2.71965204      -0.41251054       0.25350444      -1.25744107      -0.22497242
H       -0.32843557      -0.46746307      -0.91488268       0.18318251      -0.46360285       0.02313309
H       -0.26885720      -0.75948740       0.88759268       0.16478758      -0.31052028      -0.19075619
H        1.59803061       1.06412288       0.32306569       0.72753625       0.33452077       0.07341085
H        2.11433394      -0.08257109      -0.94528275      -0.23919556      -0.06450483       0.03671030
9
Lattice="1.0 0.0 0.0 0.0 1.0 0.0 0.0 0.0 1.0" Properties=species:S:1:pos:R:3:forces:R:3 R1=H R2=H R3=CH3 R4=CH3 leaving_group=Cl nucleophile=Cl rxn=sn2 config=rcc label=H_H_CH3_CH3_Cl_Cl_sn2_rcc conformation=0 reactant_id=H_H_CH3_CH3_Cl_none_-_r product_id=H_H_CH3_CH3_none_Cl_sn2_pc mp2_author_energy=-29302.391748605172 mp2_my_energy=0 hash=59123 address=T id=71 energy=-17370.738711557027 free_energy=-17370.738711557027 cell="(1,0,0), (0,1,0), (0,0,1)" stress="6.131675917139615e-07 -1.295424158668506e-06 -1.9762585989598633e-07 -1.295424158668506e-06 -1.3262689876783812e-06 -3.4210506362559346e-07 -1.9762585989598633e-07 -3.4210506362559346e-07 -2.0314485176062717e-07" pbc="F F F"
C        0.19861735      -0.38843806       0.00640570      -0.86750764       2.57832701       0.43510233
C        1.64676995       0.00639174       0.03041318      -0.07726863       0.18686360       0.02402385
H        2.25384569      -0.55021138       0.74704842      -0.22566023      -0.05368381      -0.03180004
F       -0.51118794       1.22690976       0.26353446       0.51760039      -1.10252808      -0.14953696
Cl       0.72055024      -2.66261990      -0.40252363       0.21245451      -1.00146902      -0.18301081
H       -0.33681450      -0.44634555      -0.91605213       0.04490578      -0.40622931      -0.15558566
H       -0.27626306      -0.74546102       0.89608658       0.04404923      -0.35936146       0.00226050
H        1.56506371       1.04907444       0.31932829       0.48313301       0.21130748       0.04171657
H        2.12531008      -0.08003444      -0.94682843      -0.13170642      -0.05322642       0.01683023
9
Lattice="1.0 0.0 0.0 0.0 1.0 0.0 0.0 0.0 1.0" Properties=species:S:1:pos:R:3:forces:R:3 R1=H R2=H R3=CH3 R4=CH3 leaving_group=Cl nucleophile=Cl rxn=sn2 config=rcc label=H_H_CH3_CH3_Cl_Cl_sn2_rcc conformation=0 reactant_id=H_H_CH3_CH3_Cl_none_-_r product_id=H_H_CH3_CH3_none_Cl_sn2_pc mp2_author_energy=-29302.391748605172 mp2_my_energy=0 hash=59123 address=T id=71 energy=-17370.4028356833 free_energy=-17370.4028356833 cell="(1,0,0), (0,1,0), (0,0,1)" stress="1.281819039479066e-07 -6.084579726073229e-07 -9.527007047416359e-08 -6.084579726073229e-07 -1.480021551311601e-07 -4.7906816253551e-08 -9.527007047416359e-08 -4.7906816253551e-08 -2.123093390987857e-07" pbc="F F F"
C        0.23767043      -0.50449122      -0.01322687      -0.27357049       0.87111025       0.14936644
C        1.65025088      -0.00202055       0.02931109      -0.00603008       0.06728354       0.00835164
H        2.26387432      -0.54753792       0.74874159      -0.07272421      -0.01082681      -0.00177813
F       -0.53453009       1.27649478       0.27060124       0.20771286      -0.41022942      -0.05276516
Cl       0.71100080      -2.61749150      -0.39448025       0.07985482      -0.31661832      -0.06339379
H       -0.33884943      -0.42794752      -0.90902992      -0.03613647      -0.12676117      -0.10973989
H       -0.27822923      -0.72937540       0.89596107      -0.02959813      -0.13468436       0.05817985
H        1.54330947       1.03966051       0.31703859       0.16929749       0.08080516       0.00684074
H        2.13139435      -0.07802560      -0.94750410      -0.03880580      -0.02007888       0.00493830
9
Lattice="1.0 0.0 0.0 0.0 1.0 0.0 0.0 0.0 1.0" Properties=species:S:1:pos:R:3:forces:R:3 R1=H R2=H R3=CH3 R4=CH3 leaving_group=Cl nucleophile=Cl rxn=sn2 config=rcc label=H_H_CH3_CH3_Cl_Cl_sn2_rcc conformation=0 reactant_id=H_H_CH3_CH3_Cl_none_-_r product_id=H_H_CH3_CH3_none_Cl_sn2_pc mp2_author_energy=-29302.391748605172 mp2_my_energy=0 hash=59123 address=T id=71 energy=-17370.37489611013 free_energy=-17370.37489611013 cell="(1,0,0), (0,1,0), (0,0,1)" stress="-1.6426869329313155e-08 4.0235632711441327e-07 7.87996285439943e-08 4.0235632711441327e-07 -1.8553455784804286e-07 -4.359333719800544e-08 7.87996285439943e-08 -4.359333719800544e-08 1.1811490731033272e-07" pbc="F F F"
C        0.27176150      -0.61298642      -0.03189807       0.13002344      -0.37714563      -0.06645373
C        1.65101274      -0.01039606       0.02817198       0.00485821      -0.04292150      -0.00823140
H        2.27255869      -0.54548672       0.74968768       0.04272933       0.02497105       0.01315464
F       -0.56053305       1.32747438       0.27813578      -0.11160545       0.24110912       0.04567153
Cl       0.70109019      -2.57792662      -0.38710051      -0.05868526       0.11456517       0.01677581
H       -0.33440849      -0.41187685      -0.89535768       0.04414191       0.05067692       0.06256994
H       -0.27447357      -0.71280575       0.88860923       0.04410050       0.04538723      -0.04209634
H        1.52219985       1.02986125       0.31505520      -0.13170923      -0.05519169      -0.02322855
H        2.13668365      -0.07659163      -0.94789118       0.03614656      -0.00145068       0.00183810
9
Lattice="1.0 0.0 0.0 0.0 1.0 0.0 0.0 0.0 1.0" Properties=species:S:1:pos:R:3:forces:R:3 R1=H R2=H R3=CH3 R4=CH3 leaving_group=Cl nucleophile=Cl rxn=sn2 config=rcc label=H_H_CH3_CH3_Cl_Cl_sn2_rcc conformation=0 reactant_id=H_H_CH3_CH3_Cl_none_-_r product_id=H_H_CH3_CH3_none_Cl_sn2_pc mp2_author_energy=-29302.391748605172 mp2_my_energy=0 hash=59123 address=T id=71 energy=-17370.499506270586 free_energy=-17370.499506270586 cell="(1,0,0), (0,1,0), (0,0,1)" stress="1.6671136685206106e-08 7.201254827730266e-07 1.3874746141300019e-07 7.201254827730266e-07 -6.359113622880035e-07 -1.2537072666279577e-07 1.3874746141300019e-07 -1.2537072666279577e-07 1.9646161924908798e-07" pbc="F F F"
C        0.30751982      -0.70739733      -0.04852466       0.18469456      -0.48712622      -0.08680289
C        1.65280552      -0.02513181       0.02535066       0.00937632      -0.07594378      -0.01549746
H        2.28853549      -0.53715273       0.75269734       0.07919930       0.04848284       0.02107374
F       -0.59396459       1.40664491       0.29087230      -0.17362929       0.40744156       0.07385751
Cl       0.67931311      -2.55638321      -0.38331384      -0.11221676       0.11219377       0.01598656
H       -0.31486092      -0.40178564      -0.87537771       0.10041305       0.05366941       0.10297183
H       -0.25483123      -0.70417876       0.87375109       0.10189900       0.04359849      -0.07743860
H        1.47261624       1.00884760       0.30943391      -0.25603995      -0.10633636      -0.03792627
H        2.14875807      -0.07419746      -0.94747663       0.06630375       0.00402029       0.00377558
9
Lattice="1.0 0.0 0.0 0.0 1.0 0.0 0.0 0.0 1.0" Properties=species:S:1:pos:R:3:forces:R:3 R1=H R2=H R3=CH3 R4=CH3 leaving_group=Cl nucleophile=Cl rxn=sn2 config=rcc label=H_H_CH3_CH3_Cl_Cl_sn2_rcc conformation=0 reactant_id=H_H_CH3_CH3_Cl_none_-_r product_id=H_H_CH3_CH3_none_Cl_sn2_pc mp2_author_energy=-29302.391748605172 mp2_my_energy=0 hash=59123 address=T id=71 energy=-17370.58241281198 free_energy=-17370.58241281198 cell="(1,0,0), (0,1,0), (0,0,1)" stress="8.940326435262203e-08 3.042698693183964e-07 6.889838367270431e-08 3.042698693183964e-07 -5.249194398051806e-07 -1.131987134999744e-07 6.889838367270431e-08 -1.131987134999744e-07 4.2903781149300176e-08" pbc="F F F"
C        0.33438943      -0.76213440      -0.05825826       0.06822837      -0.13855342      -0.02566671
C        1.65663983      -0.04188472       0.02165600       0.00986921      -0.04236215      -0.01037221
H        2.30713776      -0.51711110       0.76165829       0.04402237       0.05555228       0.02740372
F       -0.61105435       1.48775323       0.30610953      -0.04457853       0.20426995       0.04646480
Cl       0.65185952      -2.56570102      -0.38847941      -0.06945944      -0.02271000      -0.01568960
H       -0.29106408      -0.39719790      -0.86016714       0.05997334       0.01260923       0.03813849
H       -0.22864794      -0.70622233       0.86350899       0.06679936      -0.00527248      -0.02676354
H        1.40100761       0.98101888       0.29715009      -0.18146614      -0.06864580      -0.03912895
H        2.16562373      -0.06925505      -0.94576566       0.04661147       0.00511238       0.00561400
9
Lattice="1.0 0.0 0.0 0.0 1.0 0.0 0.0 0.0 1.0" Properties=species:S:1:pos:R:3:forces:R:3 R1=H R2=H R3=CH3 R4=CH3 leaving_group=Cl nucleophile=Cl rxn=sn2 config=rcc label=H_H_CH3_CH3_Cl_Cl_sn2_rcc conformation=0 reactant_id=H_H_CH3_CH3_Cl_none_-_r product_id=H_H_CH3_CH3_none_Cl_sn2_pc mp2_author_energy=-29302.391748605172 mp2_my_energy=0 hash=59123 address=T id=71 energy=-17370.608244547468 free_energy=-17370.608244547468 cell="(1,0,0), (0,1,0), (0,0,1)" stress="1.1219658623755345e-07 3.115760086628145e-08 1.922118184950216e-08 3.115760086628145e-08 -2.4199353994623965e-07 -7.066990122768886e-08 1.922118184950216e-08 -7.066990122768886e-08 -1.1385106654812008e-08" pbc="F F F"
C        0.34774601      -0.78856390      -0.06259616       0.01931983      -0.03780444      -0.00731197
C        1.65733173      -0.05027621       0.01935275       0.00114368      -0.01200879      -0.00439490
H        2.31474015      -0.48951308       0.77580865       0.00825994       0.04356443       0.02384189
F       -0.59651423       1.53978131       0.31910247       0.01999775       0.07374902       0.02638453
Cl       0.63130075      -2.58230551      -0.40072611      -0.02961759      -0.02353253      -0.01869526
H       -0.27852066      -0.39841676      -0.85236854       0.01811935      -0.00167330       0.01000558
H       -0.21035249      -0.71866257       0.86158319       0.02649065      -0.01704003      -0.00390868
H        1.34163645       0.96378860       0.27936473      -0.08570150      -0.02347170      -0.03203261
H        2.17852380      -0.06656630      -0.94210853       0.02198790      -0.00178266       0.00611141
9
Lattice="1.0 0.0 0.0 0.0 1.0 0.0 0.0 0.0 1.0" Properties=species:S:1:pos:R:3:forces:R:3 R1=H R2=H R3=CH3 R4=CH3 leaving_group=Cl nucleophile=Cl rxn=sn2 config=rcc label=H_H_CH3_CH3_Cl_Cl_sn2_rcc conformation=0 reactant_id=H_H_CH3_CH3_Cl_none_-_r product_id=H_H_CH3_CH3_none_Cl_sn2_pc mp2_author_energy=-29302.391748605172 mp2_my_energy=0 hash=59123 address=T id=71 energy=-17370.62029577548 free_energy=-17370.62029577548 cell="(1,0,0), (0,1,0), (0,0,1)" stress="6.010162489599899e-08 -1.6747576723089133e-08 3.4827738546135465e-09 -1.6747576723089133e-08 -6.58250992621112e-08 -2.818833409765326e-08 3.4827738546135465e-09 -2.818833409765326e-08 -1.0196263147162232e-08" pbc="F F F"
C        0.35424107      -0.81258375      -0.06349206       0.00218396      -0.00778632      -0.00138868