21
Lattice="1.0 0.0 0.0 0.0 1.0 0.0 0.0 0.0 1.0" Properties=species:S:1:pos:R:3:mp2_forces:R:3:forces:R:3 mp2_energy=-25669.004809123442 energy=-25674.00000887593 free_energy=-25674.00000887593 pbc="F F F"
C        0.16449841      -0.22688921      -0.00019392       0.02520861      -0.02838867       0.00005940       0.00177141      -0.00466653      -0.00515134
C        1.63540084       0.07834407       0.03041571      -0.03334038      -0.00005276       0.00015753      -0.00070580       0.00362097      -0.00222587
H        2.15938099      -0.83584724       0.30815559      -0.02379320       0.02684727      -0.00003962       0.00513300       0.00198689      -0.01552557
F       -0.55437544       0.98518397      -0.28480843       0.00764467      -0.04609678       0.00057088      -0.00396999      -0.00928353      -0.01023889
Cl       0.88110393      -3.40190001       0.06022632      -0.00303207       0.00327824       0.00000605       0.00298302      -0.00766322       0.02059906
H       -0.10155779      -0.93710681      -0.77480791       0.02531842       0.02018914       0.01193200       0.00803442      -0.00751329      -0.00402454
H       -0.20771098      -0.58497555       0.95679826       0.02518310       0.02041626      -0.01261682       0.00145788      -0.00420912      -0.00579310
H        1.85544460       0.86509803       0.75546666      -0.01807683      -0.00921250      -0.02739735      -0.00291592      -0.00524533       0.00938272
H        1.98705563       0.39711819      -0.95255796      -0.01896744      -0.00939623       0.02743771      -0.00325514       0.02050384       0.00135400
O       -3.16145780       2.09100262       0.21866238       0.01788502       0.00752596       0.00024092       0.02398902       0.04045476       0.00635658
H       -2.92417924       2.81515577      -0.35891826      -0.00005808      -0.00429745      -0.00004192       0.02804823       0.01287895      -0.02456182
H       -2.46067368       1.44501356       0.11382667      -0.01992517       0.01473028      -0.00017627       0.00926455       0.02199541       0.01706540
O        0.42529097       3.67715624      -0.24151798      -0.00762941      -0.01045076       0.00072020      -0.04567442       0.00140192       0.00151353
H        0.07011760       3.85317269       0.62870251       0.00884785       0.01126170      -0.00104918      -0.00412384      -0.02951754       0.02361454
H        0.27826701       2.74147086      -0.39541869       0.00793100       0.02846349       0.00013742      -0.03099053       0.00143283      -0.01365632
O       -1.34618386      -5.74828085      -0.03440103       0.00087592      -0.00433965      -0.00013380      -0.00561584      -0.00305274      -0.00242627
H       -0.57690107      -6.31651684      -0.03376764      -0.01595972      -0.00288001       0.00008316      -0.01401706      -0.01513092      -0.00023471
H       -0.95378319      -4.86662220      -0.00781797      -0.00237884      -0.01175777       0.00009761       0.00594475      -0.00877758       0.00331048
O        3.94866177      -4.38993112      -0.04717063       0.00214457       0.00063924      -0.00006669       0.00617242       0.00085537      -0.00515555
H        3.63384110      -5.29000368       0.02466798       0.01577206       0.00171354      -0.00000083       0.01727713      -0.00248414       0.00543558
H        3.13196650      -3.87289846      -0.04320572       0.00634992      -0.00819253       0.00007960       0.00119272      -0.00758699       0.00036207
21
Lattice="1.0 0.0 0.0 0.0 1.0 0.0 0.0 0.0 1.0" Properties=species:S:1:pos:R:3:mp2_forces:R:3:forces:R:3 mp2_energy=-25669.004809123442 energy=-25674.08050108974 free_energy=-25674.08050108974 stress="2.5986832835423238e-08 8.172438057680301e-09 -6.4059901443627606e-09 8.172438057680301e-09 -1.1904181629767056e-08 -1.2235675388683058e-09 -6.4059901443627606e-09 -1.2235675388683058e-09 -3.240198880477985e-09" pbc="F F F"
C        0.15678011      -0.28109252      -0.05896905       0.02520861      -0.02838867       0.00005940      -0.00056221      -0.00710535      -0.00455722
C        1.60830983       0.09677425       0.03359638      -0.03334038      -0.00005276       0.00015753      -0.00286842       0.00056372       0.00005012
H        2.17080062      -0.80316501       0.28360754      -0.02379320       0.02684727      -0.00003962       0.00137923       0.00210185      -0.00396372
F       -0.60293048       0.90067686      -0.36025413       0.00764467      -0.04609678       0.00057088      -0.00632470      -0.01088302      -0.00483191
Cl       0.92082991      -3.43974659       0.25583481      -0.00303207       0.00327824       0.00000605      -0.00380569      -0.00254198       0.00983564
H       -0.04299053      -0.99234650      -0.85229774       0.02531842       0.02018914       0.01193200       0.00574890      -0.00647315      -0.00658602
H       -0.23589713      -0.67133219       0.87727691       0.02518310       0.02041626      -0.01261682      -0.00087804      -0.01189161      -0.00680099
H        1.76798758       0.85258873       0.80532164      -0.01807683      -0.00921250      -0.02739735      -0.00758550      -0.00342982       0.00480333
H        1.96794347       0.48612430      -0.92120304      -0.01896744      -0.00939623       0.02743771      -0.00344188       0.00794179       0.00286962
O       -2.81562893       2.42993219       0.32612366       0.01788502       0.00752596       0.00024092       0.03814638       0.03278920      -0.00198242
H       -2.89580883       2.73312287      -0.57709717      -0.00005808      -0.00429745      -0.00004192      -0.01163342      -0.01929547      -0.01348862
H       -2.24595903       1.65930574       0.28157297      -0.01992517       0.01473028      -0.00017627       0.01900021       0.01795905       0.00917405
O        0.09349268       3.59937130      -0.22125818      -0.00762941      -0.01045076       0.00072020      -0.03009968       0.00235473       0.00788739
H        0.07335920       3.59230539       0.73462783       0.00884785       0.01126170      -0.00104918       0.00959956      -0.00749321       0.00830138
H        0.08356986       2.67721519      -0.48376738       0.00793100       0.02846349       0.00013742      -0.01379038       0.00491476      -0.00158104
O       -1.38329354      -5.74104893      -0.07836978       0.00087592      -0.00433965      -0.00013380      -0.00039928       0.00698321      -0.00139423
H       -0.57819785      -6.25523344      -0.02595469      -0.01595972      -0.00288001       0.00008316      -0.01083702      -0.00987050       0.00060955
H       -1.05915932      -4.83635605      -0.00683712      -0.00237884      -0.01175777       0.00009761       0.01887490       0.00066462       0.00254976
O        3.99767691      -4.36035610      -0.08615309       0.00214457       0.00063924      -0.00006669      -0.00114898       0.00241660      -0.00182426
H        3.74690251      -5.27865554       0.00361580       0.01577206       0.00171354      -0.00000083       0.00338298       0.00131153      -0.00051082
H        3.15641929      -3.89033993      -0.00708021       0.00634992      -0.00819253       0.00007960      -0.00275697      -0.00101693       0.00144041
21
Lattice="1.0 0.0 0.0 0.0 1.0 0.0 0.0 0.0 1.0" Properties=species:S:1:pos:R:3:mp2_forces:R:3:forces:R:3 mp2_energy=-25669.004809123442 energy=-25674.079269966584 free_energy=-25674.079269966584 stress="2.676305300613666e-08 9.156699173728688e-09 -6.6333871857625895e-09 9.156699173728688e-09 -1.1969859525541101e-08 -1.3535480036706617e-09 -6.6333871857625895e-09 -1.3535480036706617e-09 -3.2802472108828733e-09" pbc="F F F"
C        0.15730966      -0.28056650      -0.05827879       0.02520861      -0.02838867       0.00005940      -0.00044929      -0.00702371      -0.00446442
C        1.60889410       0.09729899       0.03378103      -0.03334038      -0.00005276       0.00015753      -0.00273821       0.00061154       0.00008666
H        2.17120902      -0.80274757       0.28404152      -0.02379320       0.02684727      -0.00003962       0.00138211       0.00206105      -0.00388442
F       -0.60252585       0.90092214      -0.36028135       0.00764467      -0.04609678       0.00057088      -0.00623468      -0.01089328      -0.00483904
Cl       0.92779804      -3.43804452       0.25733489      -0.00303207       0.00327824       0.00000605      -0.00306960      -0.00243854       0.00989393
H       -0.04261070      -0.99247526      -0.85098785       0.02531842       0.02018914       0.01193200       0.00581844      -0.00644008      -0.00642551
H       -0.23520610      -0.67010566       0.87832910       0.02518310       0.02041626      -0.01261682      -0.00074387      -0.01173863      -0.00666816
H        1.76878344       0.85342350       0.80513799      -0.01807683      -0.00921250      -0.02739735      -0.00736983      -0.00335856       0.00480011
H        1.96832584       0.48617699      -0.92127966      -0.01896744      -0.00939623       0.02743771      -0.00329218       0.00789524       0.00287298
O       -2.81641741       2.42938888       0.32613186       0.01788502       0.00752596       0.00024092       0.03998970       0.03391201      -0.00199589
H       -2.89581961       2.73334808      -0.57689384      -0.00005808      -0.00429745      -0.00004192      -0.01149158      -0.01935660      -0.01370797
H       -2.24629863       1.65911835       0.28149343      -0.01992517       0.01473028      -0.00017627       0.01922529       0.01792016       0.00897787
O        0.09409967       3.59948276      -0.22171899      -0.00762941      -0.01045076       0.00072020      -0.03206566       0.00209427       0.00800931
H        0.07327524       3.59264095       0.73414951       0.00884785       0.01126170      -0.00104918       0.00942139      -0.00776224       0.00842850
H        0.08379891       2.67727120      -0.48401073       0.00793100       0.02846349       0.00013742      -0.01398696       0.00466073      -0.00148897
O       -1.38121781      -5.75637688      -0.07932823       0.00087592      -0.00433965      -0.00013380       0.00011619       0.00413040      -0.00148781
H       -0.55559495      -6.23664619      -0.02291617      -0.01595972      -0.00288001       0.00008316      -0.00599580      -0.00654642       0.00145355
H       -1.09680928      -4.83893715      -0.01149251      -0.00237884      -0.01175777       0.00009761       0.01234091       0.00072366       0.00160621
O        3.99861746      -4.36300215      -0.08711033       0.00214457       0.00063924      -0.00006669      -0.00122429       0.00193085      -0.00200074
H        3.74641752      -5.28082299       0.00347043       0.01577206       0.00171354      -0.00000083       0.00307902       0.00089649      -0.00054682
H        3.15817775      -3.89160293      -0.00723537       0.00634992      -0.00819253       0.00007960      -0.00271109      -0.00127833       0.00138062
21
Lattice="1.0 0.0 0.0 0.0 1.0 0.0 0.0 0.0 1.0" Properties=species:S:1:pos:R:3:mp2_forces:R:3:forces:R:3 mp2_energy=-25669.004809123442 energy=-25674.078719387002 free_energy=-25674.078719387002 stress="2.4563907984884133e-08 9.573796433533379e-09 -6.9141525050088695e-09 9.573796433533379e-09 -1.2982810958773411e-08 -1.5770440534358752e-09 -6.9141525050088695e-09 -1.5770440534358752e-09 -3.3623386081157785e-09" pbc="F F F"
C        0.15780155      -0.28003560      -0.05747043       0.02520861      -0.02838867       0.00005940      -0.00029498      -0.00686152      -0.00433535
C        1.60942265       0.09796123       0.03399268      -0.03334038      -0.00005276       0.00015753      -0.00257219       0.00080172       0.00011888
H        2.17168405      -0.80205403       0.28471073      -0.02379320       0.02684727      -0.00003962       0.00145072       0.00217532      -0.00378161
F       -0.60222185       0.90107437      -0.36047208       0.00764467      -0.04609678       0.00057088      -0.00613844      -0.01085030      -0.00491709
Cl       0.93730037      -3.43506120       0.25897497      -0.00303207       0.00327824       0.00000605      -0.00004651      -0.00152633       0.01063624
H       -0.04224529      -0.99278155      -0.84940369       0.02531842       0.02018914       0.01193200       0.00594673      -0.00643986      -0.00614806
H       -0.23456771      -0.66862786       0.87959453       0.02518310       0.02041626      -0.01261682      -0.00056514      -0.01140713      -0.00644789
H        1.76946218       0.85459099       0.80479249      -0.01807683      -0.00921250      -0.02739735      -0.00715494      -0.00310393       0.00476806
H        1.96860124       0.48614944      -0.92143316      -0.01896744      -0.00939623       0.02743771      -0.00314629       0.00797407       0.00284097
O       -2.81692099       2.42900962       0.32608872       0.01788502       0.00752596       0.00024092       0.04110751       0.03464366      -0.00199118
H       -2.89586961       2.73344484      -0.57681209      -0.00005808      -0.00429745      -0.00004192      -0.01141073      -0.01936911      -0.01388243
H       -2.24651786       1.65896804       0.28138175      -0.01992517       0.01473028      -0.00017627       0.01934987       0.01792374       0.00884140
O        0.09445027       3.59952284      -0.22211220      -0.00762941      -0.01045076       0.00072020      -0.03327814       0.00197891       0.00807339
H        0.07324708       3.59282824       0.73374635       0.00884785       0.01126170      -0.00104918       0.00926725      -0.00789019       0.00851029
H        0.08391654       2.67727342      -0.48426127       0.00793100       0.02846349       0.00013742      -0.01410129       0.00453744      -0.00143570
O       -1.37952475      -5.77238052      -0.08017345       0.00087592      -0.00433965      -0.00013380       0.00057431      -0.00108201      -0.00168529
H       -0.53443203      -6.21721252      -0.02014469      -0.01595972      -0.00288001       0.00008316       0.00092754      -0.00071642       0.00263112
H       -1.13725622      -4.84352694      -0.01645829      -0.00237884      -0.01175777       0.00009761      -0.00041249      -0.00045902      -0.00011430
O        4.00046563      -4.36583212      -0.08809194       0.00214457       0.00063924      -0.00006669      -0.00068467       0.00104220      -0.00240293
H        3.74627784      -5.28300666       0.00336132       0.01577206       0.00171354      -0.00000083       0.00300908       0.00020132      -0.00058833
H        3.16113321      -3.89255999      -0.00747431       0.00634992      -0.00819253       0.00007960      -0.00182718      -0.00157257       0.00130981
21
Lattice="1.0 0.0 0.0 0.0 1.0 0.0 0.0 0.0 1.0" Properties=species:S:1:pos:R:3:mp2_forces:R:3:forces:R:3 mp2_energy=-25669.004809123442 energy=-25674.08041458325 free_energy=-25674.08041458325 stress="1.668618258640102e-08 1.3275065889739644e-08 -8.356852383350438e-09 1.3275065889739644e-08 -2.1597834163832e-08 -2.122642653683209e-09 -8.356852383350438e-09 -2.122642653683209e-09 -3.7983894756417515e-09" pbc="F F F"
C        0.15830924      -0.27869250      -0.04814662       0.02520861      -0.02838867       0.00005940       0.00008444      -0.00617067      -0.00420113
C        1.61034295       0.09958582       0.03691963      -0.03334038      -0.00005276       0.00015753      -0.00217424       0.00168416      -0.00005220
H        2.17277876      -0.79817418       0.29553767      -0.02379320       0.02684727      -0.00003962       0.00204361       0.00287370      -0.00471943
F       -0.60203385       0.89988699      -0.36011785       0.00764467      -0.04609678       0.00057088      -0.00590488      -0.01047353      -0.00488322
Cl       0.96398226      -3.42615739       0.24663757      -0.00303207       0.00327824       0.00000605       0.00722385      -0.00040793       0.01550905
H       -0.04363106      -0.99837825      -0.83325082       0.02531842       0.02018914       0.01193200       0.00611043      -0.00580634      -0.00590117
H       -0.23265739      -0.65820337       0.89326111       0.02518310       0.02041626      -0.01261682      -0.00012950      -0.01043413      -0.00614100
H        1.77215532       0.86423044       0.79931043      -0.01807683      -0.00921250      -0.02739735      -0.00657245      -0.00271938       0.00513981
H        1.96776123       0.47730777      -0.92333586      -0.01896744      -0.00939623       0.02743771      -0.00310795       0.00958854       0.00273980
O       -2.82135067       2.42358625       0.32584322       0.01788502       0.00752596       0.00024092       0.05072822       0.04138523      -0.00176036
H       -2.89612600       2.73207229      -0.57599166      -0.00005808      -0.00429745      -0.00004192      -0.01047891      -0.01949648      -0.01572387
H       -2.24813850       1.65573188       0.28070725      -0.01992517       0.01473028      -0.00017627       0.02061680       0.01833701       0.00792775
O        0.09826928       3.59632530      -0.22820927      -0.00762941      -0.01045076       0.00072020      -0.04389872       0.00122066       0.00864228
H        0.07463462       3.59195733       0.72758160       0.00884785       0.01126170      -0.00104918       0.00736798      -0.00868583       0.00937569
H        0.08451800       2.67346665      -0.48807104       0.00793100       0.02846349       0.00013742      -0.01503459       0.00352051      -0.00068649
O       -1.37688565      -5.80307472      -0.08136313       0.00087592      -0.00433965      -0.00013380       0.00258746      -0.01523787      -0.00245584
H       -0.49263058      -6.16485071      -0.02404953      -0.01595972      -0.00288001       0.00008316       0.01622436       0.01818622       0.00541810
H       -1.23299487      -4.85529800      -0.02709570      -0.00237884      -0.01175777       0.00009761      -0.03686993      -0.00938499      -0.00455311
O        4.00898045      -4.37325773      -0.08667385       0.00214457       0.00063924      -0.00006669       0.00300988      -0.00233893      -0.00413849
H        3.74529232      -5.28789540       0.00304234       0.01577206       0.00171354      -0.00000083       0.00503358      -0.00258450      -0.00074583
H        3.17363046      -3.89242443      -0.01019956       0.00634992      -0.00819253       0.00007960       0.00314056      -0.00305545       0.00120963
21
Lattice="1.0 0.0 0.0 0.0 1.0 0.0 0.0 0.0 1.0" Properties=species:S:1:pos:R:3:mp2_forces:R:3:forces:R:3 mp2_energy=-25669.004809123442 energy=-25674.078676172736 free_energy=-25674.078676172736 stress="2.0164571474697607e-08 1.4691168331082871e-08 -8.498743266082772e-09 1.4691168331082871e-08 -2.1865657584136438e-08 -1.882845632481072e-09 -8.498743266082772e-09 -1.882845632481072e-09 -3.7501666601860574e-09" pbc="F F F"
C        0.15791485      -0.27866181      -0.04550561       0.02520861      -0.02838867       0.00005940       0.00002581      -0.00620278      -0.00439598
C        1.61012285       0.09928396       0.03775692      -0.03334038      -0.00005276       0.00015753      -0.00224129       0.00160477      -0.00015870
H        2.17234919      -0.79801664       0.29837152      -0.02379320       0.02684727      -0.00003962       0.00197051       0.00269351      -0.00524872
F       -0.60227024       0.89954620      -0.35913897       0.00764467      -0.04609678       0.00057088      -0.00600356      -0.01049165      -0.00463295
Cl       0.96131414      -3.42732090       0.23929519      -0.00303207       0.00327824       0.00000605       0.00485690      -0.00177706       0.01588128
H       -0.04477246      -0.99970151      -0.82914078       0.02531842       0.02018914       0.01193200       0.00599846      -0.00545262      -0.00639106
H       -0.23251880      -0.65624775       0.89690942       0.02518310       0.02041626      -0.01261682      -0.00014053      -0.01084958      -0.00649664
H        1.77272156       0.86600440       0.79790491      -0.01807683      -0.00921250      -0.02739735      -0.00654598      -0.00320302       0.00538522
H        1.96713285       0.47415655      -0.92377517      -0.01896744      -0.00939623       0.02743771      -0.00319530       0.00994180       0.00282648
O       -2.82293883       2.42178304       0.32569981       0.01788502       0.00752596       0.00024092       0.05385278       0.04343653      -0.00193866
H       -2.89596999       2.73155836      -0.57582652      -0.00005808      -0.00429745      -0.00004192      -0.01021596      -0.01961091      -0.01610013
H       -2.24875528       1.65465945       0.28067019      -0.01992517       0.01473028      -0.00017627       0.02102586       0.01850964       0.00776242
O        0.09953253       3.59522067      -0.23028484      -0.00762941      -0.01045076       0.00072020      -0.04722683       0.00085484       0.00895394
H        0.07484707       3.59173976       0.72547724       0.00884785       0.01126170      -0.00104918       0.00686259      -0.00895991       0.00958582
H        0.08472465       2.67212739      -0.48925554       0.00793100       0.02846349       0.00013742      -0.01542256       0.00321819      -0.00043434
O       -1.37928131      -5.79411205      -0.08099175       0.00087592      -0.00433965      -0.00013380       0.00295178      -0.01226469      -0.00223145
H       -0.50236821      -6.17415344      -0.02945232      -0.01595972      -0.00288001       0.00008316       0.01168914       0.01640282       0.00472979
H       -1.21400404      -4.84959521      -0.02406103      -0.00237884      -0.01175777       0.00009761      -0.02969594      -0.01034009      -0.00362168
O        4.00875923      -4.37219767      -0.08472664       0.00214457       0.00063924      -0.00006669       0.00301641      -0.00207911      -0.00414805
H        3.74457048      -5.28687186       0.00317848       0.01577206       0.00171354      -0.00000083       0.00536780      -0.00239915      -0.00069458
H        3.17309604      -3.89145689      -0.01076855       0.00634992      -0.00819253       0.00007960       0.00306992      -0.00303154       0.00136799
21
Lattice="1.0 0.0 0.0 0.0 1.0 0.0 0.0 0.0 1.0" Properties=species:S:1:pos:R:3:mp2_forces:R:3:forces:R:3 mp2_energy=-25669.004809123442 energy=-25674.0977734743 free_energy=-25674.0977734743 stress="1.4977790542772217e-08 6.2114298835886646e-09 -6.6378592071984824e-09 6.2114298835886646e-09 -1.0211984319920778e-08 -3.4325957746907956e-09 -6.6378592071984824e-09 -3.4325957746907956e-09 -3.3303076457263262e-09" pbc="F F F"
C        0.16101788      -0.27828613      -0.06717316       0.02520861      -0.02838867       0.00005940       0.00044092      -0.00624495      -0.00269089
C        1.61176955       0.10202025       0.03090001      -0.03334038      -0.00005276       0.00015753      -0.00187184       0.00154106       0.00087100
H        2.17581178      -0.79865555       0.27579407      -0.02379320       0.02684727      -0.00003962       0.00212827       0.00366502      -0.00039542
F       -0.60015705       0.90294865      -0.36772692       0.00764467      -0.04609678       0.00057088      -0.00538734      -0.01084292      -0.00616126
Cl       0.97961731      -3.42268125       0.30381494      -0.00303207       0.00327824       0.00000605      -0.00079102       0.00137043       0.00660740
H       -0.03558311      -0.98840858      -0.86251774       0.02531842       0.02018914       0.01193200       0.00690769      -0.00795075      -0.00259247
H       -0.23388093      -0.67108554       0.86702653       0.02518310       0.02041626      -0.01261682       0.00022460      -0.00847257      -0.00385985
H        1.76774517       0.85204716       0.80883785      -0.01807683      -0.00921250      -0.02739735      -0.00657209      -0.00007247       0.00315299
H        1.97219026       0.49976515      -0.92007154      -0.01896744      -0.00939623       0.02743771      -0.00245101       0.00582558       0.00252593
O       -2.81220030       2.43533294       0.32703067       0.01788502       0.00752596       0.00024092       0.03179715       0.02807848      -0.00209035
H       -2.89657705       2.73694377      -0.57636746      -0.00005808      -0.00429745      -0.00004192      -0.01221701      -0.01872403      -0.01230438
H       -2.24465982       1.66326167       0.28111154      -0.01992517       0.01473028      -0.00017627       0.01790715       0.01717728       0.00887831
O        0.09159856       3.60447613      -0.21370757      -0.00762941      -0.01045076       0.00072020      -0.02335377       0.00296243       0.00723173
H        0.07234686       3.59414612       0.74218591       0.00884785       0.01126170      -0.00104918       0.01100661      -0.00692598       0.00756350
H        0.08410236       2.68325433      -0.47960882       0.00793100       0.02846349       0.00013742      -0.01303704       0.00561788      -0.00226464
O       -1.35043850      -5.87263250      -0.08347100       0.00087592      -0.00433965      -0.00013380       0.01068369      -0.01281786      -0.00072743
H       -0.41803206      -6.06667433       0.01695446      -0.01595972      -0.00288001       0.00008316       0.01799582       0.02962019       0.00703142
H       -1.39386369      -4.91580893      -0.05330745      -0.00237884      -0.01175777       0.00009761      -0.03369298      -0.01567432      -0.00685401
O        4.01546592      -4.38405835      -0.10245935       0.00214457       0.00063924      -0.00006669      -0.00075109      -0.00185595      -0.00267491
H        3.75372865      -5.29775764       0.00123597       0.01577206       0.00171354      -0.00000083       0.00245748      -0.00258791      -0.00127327
H        3.18420449      -3.90040335      -0.00614500       0.00634992      -0.00819253       0.00007960      -0.00142417      -0.00368864       0.00002658
21
Lattice="1.0 0.0 0.0 0.0 1.0 0.0 0.0 0.0 1.0" Properties=species:S:1:pos:R:3:mp2_forces:R:3:forces:R:3 mp2_energy=-25669.004809123442 energy=-25674.09698051081 free_energy=-25674.09698051081 stress="3.894641583700855e-08 2.139856440211809e-08 -9.65275495879969e-09 2.139856440211809e-08 -4.5867032535580005e-08 -1.6741076478735145e-09 -9.65275495879969e-09 -1.6741076478735145e-09 -4.1383679185233055e-09" pbc="F F F"
C        0.16597485      -0.26734507      -0.01926065       0.02520861      -0.02838867       0.00005940      -0.00039869      -0.00446176      -0.00439083
C        1.61893249       0.11179627       0.04408041      -0.03334038      -0.00005276       0.00015753      -0.00210664       0.00155552      -0.00062203
H        2.18354524      -0.78062875       0.31689721      -0.02379320       0.02684727      -0.00003962       0.00067604       0.00156239      -0.00599882
F       -0.59674472       0.90263270      -0.35597952       0.00764467      -0.04609678       0.00057088      -0.00529712      -0.00751930      -0.00251134
Cl       0.98319095      -3.41082010       0.20721655      -0.00303207       0.00327824       0.00000605      -0.00088304      -0.00310282       0.01730527
H       -0.04180606      -1.00714689      -0.78367313       0.02531842       0.02018914       0.01193200       0.00416638      -0.00251139      -0.00733577
H       -0.21826635      -0.62105545       0.93498693       0.02518310       0.02041626      -0.01261682      -0.00035233      -0.01001442      -0.00652908
H        1.78867811       0.89410992       0.78646966      -0.01807683      -0.00921250      -0.02739735      -0.00501388      -0.00351203       0.00529653
H        1.96691180       0.46642111      -0.92840030      -0.01896744      -0.00939623       0.02743771      -0.00258466       0.00965920       0.00216526
O       -2.82785860       2.41721506       0.32006385       0.01788502       0.00752596       0.00024092       0.05767514       0.04794776      -0.00257786
H       -2.89756392       2.72902932      -0.58098305      -0.00005808      -0.00429745      -0.00004192      -0.01012830      -0.01966648      -0.01790585
H       -2.25091162       1.65218816       0.27603954      -0.01992517       0.01473028      -0.00017627       0.02084694       0.01999622       0.00792086
O        0.09714772       3.59662399      -0.24072459      -0.00762941      -0.01045076       0.00072020      -0.05195425       0.00182415       0.00937243
H        0.06892596       3.59783358       0.71493847       0.00884785       0.01126170      -0.00104918       0.00562455      -0.00817416       0.01017203
H        0.08372408       2.67209820      -0.49479071       0.00793100       0.02846349       0.00013742      -0.01610967       0.00430237      -0.00018420
O       -1.32583599      -5.90599036      -0.08500528       0.00087592      -0.00433965      -0.00013380       0.00303304      -0.00682553      -0.00283975
H       -0.37196942      -5.97032690      -0.02133955      -0.01595972      -0.00288001       0.00008316       0.00285088      -0.00439888       0.00332818
H       -1.49955204      -4.96443520      -0.06358772      -0.00237884      -0.01175777       0.00009761       0.00017505      -0.00740827      -0.00114383
O        4.02111912      -4.40596247      -0.08567434       0.00214457       0.00063924      -0.00006669      -0.00090558      -0.00227338      -0.00444849
H        3.74356440      -5.31661252       0.00229334       0.01577206       0.00171354      -0.00000083       0.00226897      -0.00289266      -0.00058269
H        3.19300028      -3.91188058      -0.02123117       0.00634992      -0.00819253       0.00007960      -0.00158282      -0.00408652       0.00150998
21
Lattice="1.0 0.0 0.0 0.0 1.0 0.0 0.0 0.0 1.0" Properties=species:S:1:pos:R:3:mp2_forces:R:3:forces:R:3 mp2_energy=-25669.004809123442 energy=-25674.092687334356 free_energy=-25674.092687334356 stress="1.4953018771303448e-08 2.275193156902463e-08 -7.990379927041217e-09 2.275193156902463e-08 -7.112122005210009e-08 9.070690113196264e-10 -7.990379927041217e-09 9.070690113196264e-10 -3.79343171974296e-09" pbc="F F F"
C        0.17093366      -0.26714304       0.01435338       0.02520861      -0.02838867       0.00005940      -0.00153096      -0.00231456      -0.00560175