14
Properties=species:S:1:pos:R:3:mp2_forces:R:3:forces:R:3 R1=NO2 R2=NH2 R3=H R4=CN lg=Br nu=Cl rxn-id=1108 mp2_energy=-94236.46704708227 energy=-94236.46704907104 free_energy=-94236.46704907104 pbc="F F F"
C        0.57069439      -0.06963516      -0.00059898       0.02510408       0.00820851       0.00203247       0.02509350       0.00817298       0.00201154
C        1.08738561       1.35638946      -0.14137527       0.01487473      -0.02018547      -0.00658985       0.01487672      -0.02012078      -0.00661968
H        2.17849969       1.26836476      -0.25505700       0.00285159      -0.03621305      -0.03194252       0.00283313      -0.03621400      -0.03193743
Br      -1.40449954      -0.11414554       0.04491041      -0.00324141       0.03671925      -0.01890430      -0.00327035       0.03671737      -0.01890005
Cl       4.05162529      -0.23330150       0.11698515       0.03315947       0.03051262       0.08859251       0.03316312       0.03051475       0.08859087
H        0.89082552       1.84701921       0.81584997       0.00316132      -0.03595727      -0.01608700       0.00315895      -0.03596678      -0.01609834
N        0.90362023      -0.89003134      -1.28713291       0.02106494      -0.02683282       0.03512517       0.02092670      -0.02678626       0.03501765
O        1.09003239      -0.27557516      -2.32792362      -0.02568022       0.00939527      -0.01992728      -0.02561097       0.00937474      -0.01985157
O        0.94033248      -2.10567098      -1.14457717      -0.06305001       0.02392772      -0.00729589      -0.06294756       0.02392329      -0.00725890
N        1.08616057      -0.65484598       1.15884217       0.02342202       0.01132323      -0.00032040       0.02344432       0.01131274      -0.00030023
H        2.11480005      -0.58381740       1.09052549       0.03219887      -0.00914810       0.00498736       0.03217934      -0.00914472       0.00498483
H        0.83212192      -1.63558002       1.19604172      -0.00462828       0.01859007      -0.04507550      -0.00463170       0.01859173      -0.04507585
C        0.52428534       2.16984783      -1.21003607      -0.04683168       0.04213998      -0.06252536      -0.04675747       0.04200949      -0.06237590
N        0.10533958       2.90796186      -2.02201436      -0.01240543      -0.05247993       0.07793061      -0.01245775      -0.05238454       0.07781306
13
Properties=species:S:1:pos:R:3:mp2_forces:R:3:forces:R:3 R1=NO2 R2=H R3=CN R4=CN lg=Cl nu=Cl rxn-id=918 mp2_energy=-37735.580111661155 energy=-37735.580121463325 free_energy=-37735.580121463325 pbc="F F F"
C        0.48293747      -0.06657280      -0.06296930       0.00778271       0.00801855      -0.03515310       0.00780380       0.00805997      -0.03514614
C        0.97208919       1.37772955      -0.05388618       0.02971601       0.01946260       0.02386053       0.02973131       0.01953724       0.02388007
H        2.07130474       1.28036208      -0.09265634       0.00913057       0.06561446      -0.01383129       0.00909882       0.06560909      -0.01383795
Cl      -1.28403123      -0.16678779      -0.15357281      -0.02456139      -0.02339000       0.02962216      -0.02455197      -0.02340293       0.02961666
Cl       3.37221074      -0.31186292       0.99550949       0.02411526       0.03164376       0.02875614       0.02411716       0.03164035       0.02875843
H        0.85021904      -0.57664150       0.82288208      -0.01837047      -0.03895568       0.01579788      -0.01837328      -0.03895452       0.01578817
N        1.05867096      -0.81809244      -1.23773490       0.00127758      -0.01553791       0.00521980       0.00125417      -0.01571517       0.00531327
O        1.55611151      -0.16271860      -2.14649950      -0.02695938       0.00412353      -0.01496551      -0.02695742       0.00420930      -0.01504639
O        0.95762734      -2.03530772      -1.18434596      -0.04324858       0.01801665      -0.02795711      -0.04325951       0.01807529      -0.02796935
C        0.62892295       1.99535132       1.23051752       0.03448778      -0.05706379      -0.03360899       0.03448660      -0.05706582      -0.03358864
N        0.34698899       2.50707165       2.24827839      -0.04012469       0.02337451       0.01229725      -0.04011726       0.02335254       0.01224141
C        0.43282824       2.19718007      -1.14152072      -0.00139840       0.03061029      -0.02685421      -0.00137011       0.03055611      -0.02680306
N       -0.01230557       2.90712734      -1.96510097       0.04815299      -0.06591696       0.03681645       0.04813768      -0.06590145       0.03679353
19
Properties=species:S:1:pos:R:3:mp2_forces:R:3:forces:R:3 R1=CH3 R2=CH3 R3=NH2 R4=NO2 lg=Br nu=Br rxn-id=2285 mp2_energy=-151367.59022929455 energy=-151367.59022929455 free_energy=-151367.59022929455 pbc="F F F"
C        0.67564956      -0.07683036       0.01382905      -0.04113694      -0.07061562       0.00479059      -0.04113694      -0.07061562       0.00479059
C        1.31753404       1.31687095       0.00934830      -0.04215996       0.05084858      -0.06888362      -0.04215996       0.05084858      -0.06888362
H        2.39303898       1.13950858      -0.16388535      -0.07479598       0.02832276       0.00040543      -0.07479598       0.02832276       0.00040543
Br      -1.31395291       0.12120348       0.14345915       0.02055123       0.07224414      -0.02575087       0.02055123       0.07224414      -0.02575087
Br       4.62443812      -0.22667503      -0.01366867      -0.00071101       0.07831591      -0.02288791      -0.00071101       0.07831591      -0.02288791
C        0.98393387      -0.90279108      -1.22572157      -0.01956144       0.01734206       0.04693915      -0.01956144       0.01734206       0.04693915
H        0.55548494      -0.48756562      -2.13661597       0.01299824       0.02201452       0.05583096       0.01299824       0.02201452       0.05583096
H        2.07444803      -0.94839019      -1.32466714      -0.03213691      -0.01885579       0.01295279      -0.03213691      -0.01885579       0.01295279
H        0.58944818      -1.91116300      -1.07676691       0.02585616       0.00225861      -0.02550218       0.02585616       0.00225861      -0.02550218
C        1.14378597      -0.80094807       1.26453410      -0.01822516      -0.01751005      -0.00710054      -0.01822516      -0.01751005      -0.00710054
H        2.23776730      -0.84489761       1.21965115      -0.00948129      -0.00163067       0.04142626      -0.00948129      -0.00163067       0.04142626
H        0.83294517      -0.27002043       2.16152446       0.06580047      -0.00963452       0.02083714       0.06580047      -0.00963452       0.02083714
H        0.73931765      -1.81506835       1.27646552      -0.01936408      -0.02643663      -0.00803684      -0.01936408      -0.02643663      -0.00803684
N        1.11102499       2.03560005       1.21523940      -0.02361498      -0.05219590       0.04085009      -0.02361498      -0.05219590       0.04085009
H        0.15129114       2.35455136       1.27367280       0.02867702      -0.00916813      -0.02620922       0.02867702      -0.00916813      -0.02620922
H        1.72335043       2.83921481       1.25066940       0.03234060      -0.02319130      -0.00691070       0.03234060      -0.02319130      -0.00691070
N        0.83251416       2.12284378      -1.20979829       0.04620204       0.03710570      -0.02708075       0.04620204       0.03710570      -0.02708075
O        0.11240542       3.10129734      -1.00443425      -0.00345008      -0.05207837       0.03999998      -0.00345008      -0.05207837       0.03999998
O        1.20692591       1.75815477      -2.32052816       0.05221217      -0.02713530      -0.04566977       0.05221217      -0.02713530      -0.04566977
15
Properties=species:S:1:pos:R:3:mp2_forces:R:3:forces:R:3 R1=NO2 R2=H R3=CH3 R4=CN lg=Br nu=Cl rxn-id=946 mp2_energy=-93799.9579575287 energy=-93799.95795001902 free_energy=-93799.95795001902 pbc="F F F"
C        0.43458074      -0.04111256      -0.10000222       0.00349967      -0.01482355       0.00479280       0.00350682      -0.01479502       0.00476726
C        0.78672139       1.43453012      -0.09566337       0.00719126      -0.01441776      -0.00539729       0.00718577      -0.01435825      -0.00541543
H        1.87511933       1.45507860      -0.21598156       0.01151368      -0.03408870       0.00648714       0.01149772      -0.03408979       0.00649166
Br      -1.48750715      -0.36356612      -0.14966880      -0.01278391       0.03414022       0.00116303      -0.01279422       0.03412792       0.00116187
Cl       3.28332752      -0.15152927       1.21561170      -0.01276614       0.02649639       0.06649492      -0.01276558       0.02649584       0.06649565
H        0.83647650      -0.52552186       0.78678322       0.05415168      -0.00075541      -0.00676881       0.05415550      -0.00076099      -0.00677426
N        1.03571516      -0.78006760      -1.26691237       0.02302002       0.00049057       0.01051354       0.02296408       0.00032449       0.01057167
O        1.50348523      -0.11197456      -2.18353113      -0.01237964      -0.00350629      -0.03010766      -0.01234261      -0.00345000      -0.03014164
O        1.00904969      -2.00166731      -1.20227646      -0.02052668      -0.00359350      -0.03959374      -0.02050862      -0.00351902      -0.03959819
C        0.45770528       2.05751424       1.26350089       0.00004229       0.00650586      -0.01311445       0.00004152       0.00650220      -0.01311341
H       -0.59844954       1.93517437       1.51168997      -0.00073448       0.02052751      -0.00546954      -0.00072566       0.02052975      -0.00546876
H        1.08596691       1.57571523       2.01431243      -0.00489545      -0.00571474      -0.02221676      -0.00490235      -0.00570958      -0.02222401
H        0.68883096       3.12398200       1.23739569       0.01656477       0.00708620       0.04442392       0.01656623       0.00708064       0.04442431
C        0.16600511       2.18797233      -1.18415595      -0.03860358       0.01838442      -0.04917023      -0.03857722       0.01835580      -0.04912633
N       -0.32109964       2.86993056      -2.00769668      -0.01329349      -0.03673122       0.03796313      -0.01330140      -0.03673399       0.03794960
17
Properties=species:S:1:pos:R:3:mp2_forces:R:3:forces:R:3 R1=H R2=CH3 R3=CH3 R4=NH2 lg=Br nu=Cl rxn-id=669 mp2_energy=-88308.19840736475 energy=-88308.19840605545 free_energy=-88308.19840605545 pbc="F F F"
C        0.48998440      -0.01759957       0.07932018       0.00264404      -0.02546440      -0.00140422       0.00267288      -0.02545428      -0.00136015
C        0.77853113       1.47478718       0.06593254       0.02720807      -0.00295906       0.01093284       0.02720553      -0.00290372       0.01088210
H        1.87599631       1.47217703       0.04485047       0.02109353       0.05716342      -0.03774306       0.02109144       0.05715081      -0.03773878
Br      -1.46306915      -0.36072579      -0.16422997       0.00659148       0.01885043       0.03958424       0.00655601       0.01884976       0.03958134
Cl       3.78570348      -0.59420834      -0.64494606       0.03045460       0.04993148       0.02915920       0.03045179       0.04993160       0.02915823
H        0.96098491      -0.45084204      -0.80076526      -0.04022148       0.01630309      -0.05637411      -0.04021565       0.01629446      -0.05639480
C        0.96369303      -0.73807519       1.32186260      -0.01479141      -0.00104772       0.03845712      -0.01478601      -0.00106745       0.03844642
H        2.02048034      -0.49726624       1.45445389       0.00555905      -0.03843515      -0.03047418       0.00555979      -0.03842871      -0.03047326
H        0.38899330      -0.45908991       2.20638345      -0.05015182       0.03085756       0.03172617      -0.05015321       0.03086523       0.03172476
H        0.89290130      -1.81771453       1.18190348      -0.01222207       0.00962019      -0.00293191      -0.01222563       0.00962431      -0.00292747
C        0.29699095       2.23071617       1.30799663       0.00707383       0.00209040      -0.00736878       0.00709065       0.00208031      -0.00737152
H       -0.79320016       2.19841595       1.40053561      -0.00149967      -0.06807950      -0.03642497      -0.00150945      -0.06808167      -0.03643109
H        0.73826257       1.84087102       2.22899706      -0.01136181      -0.04901491      -0.01997515      -0.01136264      -0.04901406      -0.01996251
H        0.59230835       3.28197421       1.23293620       0.01168598       0.01492150      -0.04685483       0.01168118       0.01490996      -0.04685578
N        0.33346676       2.06055027      -1.19963316       0.00217547      -0.01226410       0.03619210       0.00216028      -0.01223806       0.03621185
H        0.63756359       3.02686992      -1.23848893       0.02492597      -0.01756237      -0.02154599       0.02491702      -0.01759639      -0.02153432
H       -0.68024045       2.05423731      -1.23864866      -0.00916378       0.01508915       0.07504553      -0.00913401       0.01507791       0.07504499
15
Properties=species:S:1:pos:R:3:mp2_forces:R:3:forces:R:3 R1=CN R2=H R3=CH3 R4=NO2 lg=Cl nu=Cl rxn-id=1300 mp2_energy=-36296.982485994035 energy=-36296.98248395324 free_energy=-36296.98248395324 pbc="F F F"
C        0.45755594      -0.04199224      -0.11173330       0.03755082      -0.00651365       0.00488505       0.03758206      -0.00650638       0.00490180
C        0.81194401       1.44488803      -0.09403841      -0.01340405      -0.01032749      -0.00522535      -0.01337378      -0.01035726      -0.00526453
H        1.88052392       1.49772373      -0.31940194      -0.02978478      -0.03577210      -0.00668125      -0.02980254      -0.03577556      -0.00667533
Cl      -1.32783149      -0.29242171      -0.00332351       0.04843378       0.04092836      -0.01272852       0.04842496       0.04091812      -0.01273686
Cl       3.37667406      -0.09466906       1.11454588      -0.00912936       0.03248932       0.08665307      -0.00912872       0.03248897       0.08665482
H        0.90869951      -0.46681333       0.78526198       0.04890866      -0.03043202      -0.00662234       0.04890207      -0.03042450      -0.00664296
C        0.96558913      -0.78262247      -1.26104829      -0.03753417      -0.02329568      -0.02780549      -0.03754016      -0.02324662      -0.02775328
N        1.33143117      -1.44348144      -2.16013650      -0.03664978       0.02932211      -0.00830382      -0.03665474       0.02927620      -0.00834259
C        0.52855557       2.08892831       1.24201055       0.00423491       0.00080106      -0.00713516       0.00422394       0.00081809      -0.00713220
H       -0.50623697       1.93943594       1.55079979       0.00604680       0.01453838      -0.00534995       0.00605947       0.01453992      -0.00535270
H        1.21541699       1.63782865       1.95947051       0.00052048      -0.00433049      -0.00691384       0.00051728      -0.00432999      -0.00692063
H        0.72146382       3.16032883       1.18887523       0.01840592       0.00275912       0.02744538       0.01840409       0.00274557       0.02744827
N        0.10225489       2.14404218      -1.21921449      -0.01026473      -0.01067988      -0.01025147      -0.01038650      -0.01053138      -0.01007684
O       -0.70764251       3.03056553      -0.95058100      -0.01420559      -0.01578349      -0.00351119      -0.01413057      -0.01586978      -0.00355963
O        0.38966196       1.77648364      -2.35701233      -0.01312889       0.01629646      -0.01845511      -0.01309686       0.01625461      -0.01854733
13
Properties=species:S:1:pos:R:3:mp2_forces:R:3:forces:R:3 R1=CH3 R2=H R3=CN R4=H lg=F nu=Cl rxn-id=1808 mp2_energy=-20945.00614547083 energy=-20945.006144246046 free_energy=-20945.006144246046 pbc="F F F"
C        0.65847996      -0.06100107      -0.03066187       0.00155003      -0.03462642      -0.00321634       0.00157556      -0.03463279      -0.00322117
C        0.95044619       1.43215589      -0.01166325      -0.01174224      -0.02219890      -0.01152622      -0.01174243      -0.02221485      -0.01152208
H        2.04056856       1.53461114      -0.05083146      -0.00514626      -0.02356470       0.05520905      -0.00514355      -0.02356221       0.05520732
F       -0.72945331      -0.25917941       0.12134304       0.03938789       0.03754787       0.02055332       0.03938576       0.03754587       0.02055340
Cl       3.98414370      -0.10023258       0.49012652       0.03230439       0.03035875      -0.03362230       0.03230641       0.03035780      -0.03362158
H        1.14755498      -0.52932672       0.82094239       0.03534159       0.02451927       0.01786068       0.03533353       0.02452634       0.01784949
H        0.50341577       1.91261135      -0.88779858      -0.01177630      -0.00082586      -0.02027999      -0.01178164      -0.00081912      -0.02028482
C        1.09811849      -0.70104858      -1.33000332      -0.01346621      -0.01135322      -0.01236905      -0.01347032      -0.01134414      -0.01235413
H        0.32461552      -0.54269636      -2.08776346       0.01957606       0.05890481      -0.00475255       0.01957788       0.05890379      -0.00475415
H        2.04740615      -0.27851337      -1.65612870       0.01829279      -0.06193367       0.05083795       0.01828709      -0.06193846       0.05083775
H        1.24898486      -1.77254725      -1.19067058      -0.05786049       0.00139115      -0.04326304      -0.05786202       0.00139165      -0.04326474
C        0.44320664       2.08646555       1.19185830      -0.01412178      -0.02004568      -0.01409239      -0.01412005      -0.02003675      -0.01409237
N        0.03396773       2.61622554       2.15535934      -0.03233949       0.02182660      -0.00133911      -0.03234621       0.02182287      -0.00133292
14
Properties=species:S:1:pos:R:3:mp2_forces:R:3:forces:R:3 R1=NO2 R2=H R3=H R4=CH3 lg=Br nu=Cl rxn-id=876 mp2_energy=-91294.06677935288 energy=-91294.06677184919 free_energy=-91294.06677184919 pbc="F F F"
C        0.50088394      -0.05218653      -0.12519997       0.03290504       0.02595864      -0.04574274       0.03295769       0.02594334      -0.04572063
C        0.92254299       1.39297063      -0.22988621       0.04637425       0.02039649       0.03817023       0.04638425       0.02036158       0.03816959
H        1.97911229       1.34852410      -0.49270521       0.04331527       0.01268493       0.01010468       0.04331837       0.01268804       0.01010758
Br      -1.44159149      -0.28476126       0.01383638       0.04852060       0.01912154      -0.00518978       0.04851101       0.01909276      -0.00519561
Cl       3.37078452      -0.39063125       1.20176041       0.00478337       0.01863775       0.05835553       0.00478714       0.01863805       0.05835546
H        0.95188422      -0.53001195       0.74459109       0.00634838       0.01848005      -0.07754704       0.00630538       0.01850125      -0.07758262
H        0.90420451       1.77269040       0.79358789      -0.01207982       0.04249635       0.05645941      -0.01207843       0.04249651       0.05646556
N        0.95901593      -0.89154707      -1.29605142      -0.02745356       0.00924888      -0.01593921      -0.02747766       0.00929227      -0.01597185
O        1.38856424      -0.31638718      -2.29417468      -0.07543075       0.03895600       0.03517285      -0.07542226       0.03893516       0.03520799
O        0.87862989      -2.10481155      -1.15685296      -0.05882287      -0.05663854      -0.03719682      -0.05881832      -0.05662884      -0.03717351
C        0.14732483       2.32339661      -1.15723996       0.01068444      -0.04109019       0.01529301       0.01067175      -0.04109524       0.01528486
H        0.02090898       1.89671612      -2.15262612       0.03153789      -0.02677625       0.01178720       0.03153763      -0.02677503       0.01177850
H       -0.83815586       2.56807965      -0.75418909      -0.00375625      -0.05022210      -0.02436186      -0.00376341      -0.05021698      -0.02435861
H        0.70665248       3.25912294      -1.25893796      -0.04692600      -0.03125354      -0.01936544      -0.04691316      -0.03123286      -0.01936672
14
Properties=species:S:1:pos:R:3:mp2_forces:R:3:forces:R:3 R1=NH2 R2=CN R3=CN R4=CN lg=Cl nu=Cl rxn-id=2623 mp2_energy=-36188.81519176074 energy=-36188.81519578857 free_energy=-36188.81519578857 pbc="F F F"
C        0.60226421      -0.11385150       0.02956422       0.00795376      -0.01193009      -0.07465210       0.00794691      -0.01189380      -0.07462592
C        1.15025414       1.33148659       0.07800113      -0.01709091      -0.01763822      -0.00716728      -0.01708088      -0.01760419      -0.00712758
H        2.25950097       1.19360410       0.09608172      -0.02828987      -0.00274986       0.01061887      -0.02831660      -0.00274903       0.01062067
Cl      -1.19662367      -0.08306797      -0.16149779       0.03307186       0.02848674       0.06368472       0.03310239       0.02847956       0.06367912
Cl       4.06391897      -0.04956656      -0.01571511       0.03421077       0.02489237      -0.03137529       0.03421813       0.02488853      -0.03137753
N        1.17285627      -0.74185417      -1.11847393      -0.02817945      -0.02777875      -0.02587834      -0.02820545      -0.02774866      -0.02595303
H        0.82820431      -1.69106525      -1.20039191       0.02757938      -0.03835848       0.03188504       0.02756847      -0.03839347       0.03189384
H        2.19527093      -0.75277951      -0.98599601      -0.03765589       0.06141339       0.00187506      -0.03763776       0.06141550       0.00190452
C        0.85949621      -0.78910690       1.31543773       0.03254645      -0.00677566       0.03379301       0.03252998      -0.00676148       0.03380536
N        1.06346437      -1.39006768       2.30523168      -0.05971486      -0.00414016       0.02310463      -0.05970129      -0.00415260       0.02309280
C        0.72135720       2.06595648       1.26626741      -0.01466921       0.00403725      -0.02912869      -0.01463094       0.00397673      -0.02922502
N        0.39160519       2.68680780       2.20723944      -0.00562293      -0.03415484       0.01272761      -0.00565220      -0.03412871       0.01277170
C        0.75718672       2.05313382      -1.13148213       0.01517833      -0.00343335      -0.00753699       0.01518979      -0.00342541      -0.00752010
N        0.42254722       2.66716948      -2.07457521       0.04068257       0.02812965      -0.00195026       0.04066945       0.02809702      -0.00193884
11
Properties=species:S:1:pos:R:3:mp2_forces:R:3:forces:R:3 R1=H R2=H R3=NO2 R4=H lg=Br nu=Cl rxn-id=29 mp2_energy=-90227.66649340076 energy=-90227.66649340076 free_energy=-90227.66649340076 pbc="F F F"
C        0.63278408      -0.02363630      -0.01813530      -0.01662047      -0.01874569       0.00214181      -0.01662047      -0.01874569       0.00214181
C        1.10392045       1.39573693       0.12062792      -0.00123729      -0.00067576       0.01219984      -0.00123729      -0.00067576       0.01219984
H        2.17688830       1.33096953       0.33656862       0.00709719       0.00957240      -0.00112612       0.00709719       0.00957240      -0.00112612
Br      -1.31324633      -0.11297432      -0.26790533       0.00769569       0.00137802      -0.09548133       0.00769569       0.00137802      -0.09548133
Cl       3.79553528      -0.54114712       0.26321312       0.01754595       0.01884623      -0.04029828       0.01754595       0.01884623      -0.04029828
H        1.10942528      -0.48363850      -0.88012744      -0.03272941       0.01401609       0.05285008      -0.03272941       0.01401609       0.05285008
H        0.87140958      -0.59872539       0.86699008       0.00934886      -0.03971473       0.06872373       0.00934886      -0.03971473       0.06872373
H        0.90751854       2.01046600      -0.75438723      -0.02657112      -0.00536525      -0.01556359      -0.02657112      -0.00536525      -0.01556359
N        0.44586600       2.08619960       1.26389196       0.01812362       0.03563434      -0.01417212       0.01812362       0.03563434      -0.01417212
O        0.04445967       3.23641346       1.07958603       0.02814394      -0.00937034       0.01217612       0.02814394      -0.00937034       0.01217612
O        0.36798840       1.47741763       2.32691630      -0.01079697      -0.00557531       0.01854985      -0.01079697      -0.00557531       0.01854985
16
Properties=species:S:1:pos:R:3:mp2_forces:R:3:forces:R:3 R1=CN R2=CN R3=CH3 R4=NO2 lg=Cl nu=F rxn-id=1441 mp2_energy=-29004.5294350704 energy=-29004.5294350704 free_energy=-29004.5294350704 pbc="F F F"
C        0.43611058      -0.06350929      -0.05568165       0.04630820       0.04426699      -0.00835204       0.04630820       0.04426699      -0.00835204
C        0.72527011       1.46012781      -0.07062617       0.01363822      -0.00579159       0.00556356       0.01363822      -0.00579159       0.00556356
H        1.77895004       1.51561160      -0.34099074       0.00362282       0.02284214      -0.01793791       0.00362282       0.02284214      -0.01793791
Cl      -1.37630668      -0.30819930      -0.28339279      -0.04675402      -0.00179040       0.02099512      -0.04675402      -0.00179040       0.02099512
F        2.68908451       0.05212938       0.51305965      -0.00579489       0.00404229       0.03797303      -0.00579489       0.00404229       0.03797303
C        1.08822829      -0.80042557      -1.13817000      -0.00388976      -0.00175797       0.01765388      -0.00388976      -0.00175797       0.01765388
N        1.45434097      -1.46326290      -2.03686196       0.00677447       0.02538848      -0.02130800       0.00677447       0.02538848      -0.02130800
C        0.76779093      -0.65576735       1.24324625      -0.04406532      -0.00799266       0.02227420      -0.04406532      -0.00799266       0.02227420
N        0.65484986      -1.16682763       2.29933744       0.02862087      -0.00757917      -0.01668815       0.02862087      -0.00757917      -0.01668815
C        0.46781742       2.11625337       1.26380342      -0.00276769      -0.01817680      -0.00559815      -0.00276769      -0.01817680      -0.00559815
H       -0.53389309       1.89526853       1.63586924      -0.00107798       0.01358567       0.02151507      -0.00107798       0.01358567       0.02151507
H        1.21894025       1.72905718       1.95130820      -0.00453718      -0.01749614      -0.01716696      -0.00453718      -0.01749614      -0.01716696
H        0.57604349       3.19876382       1.18248794       0.00871420      -0.02523158      -0.02365144       0.00871420      -0.02523158      -0.02365144
N       -0.06376253       2.10477347      -1.17408789      -0.00195143      -0.03119909      -0.01206317      -0.00195143      -0.03119909      -0.01206317
O       -0.89195293       2.97050400      -0.89257847       0.00714946      -0.00275335      -0.01919036       0.00714946      -0.00275335      -0.01919036
O        0.19389742       1.72560960      -2.31573698      -0.00398997       0.00964319       0.01598131      -0.00398997       0.00964319       0.01598131
16
Properties=species:S:1:pos:R:3:mp2_forces:R:3:forces:R:3 R1=CN R2=CN R3=CH3 R4=NH2 lg=Cl nu=F rxn-id=1452 mp2_energy=-24951.619493867092 energy=-24951.619493867092 free_energy=-24951.619493867092 pbc="F F F"
C        0.46428125      -0.04059242      -0.04312141      -0.06039832      -0.06163312      -0.00526729      -0.06039832      -0.06163312      -0.00526729
C        0.63232028       1.49280525      -0.05022558       0.02326462       0.00696670      -0.00407405       0.02326462       0.00696670      -0.00407405
H        1.70941367       1.57713263      -0.17606275       0.08313642       0.04501635      -0.02635794       0.08313642       0.04501635      -0.02635794
Cl      -1.36000351      -0.41615576      -0.12037395      -0.03971099       0.03896021       0.01495427      -0.03971099       0.03896021       0.01495427
F        2.75971650      -0.00738038       0.31731920      -0.00255989       0.02414026       0.06089597      -0.00255989       0.02414026       0.06089597
C        1.02503238      -0.66525772      -1.23782878       0.04415252      -0.02235802      -0.03039670       0.04415252      -0.02235802      -0.03039670
N        1.30715930      -1.21523626      -2.23699475       0.00428483       0.02828946      -0.03496860       0.00428483       0.02828946      -0.03496860
C        0.94880087      -0.66877356       1.18929481      -0.01301473      -0.01269259       0.04675115      -0.01301473      -0.01269259       0.04675115
N        0.90659552      -1.20173094       2.24184939       0.04600804       0.02043800      -0.03197681       0.04600804       0.02043800      -0.03197681
C        0.22347740       2.09626038       1.28859798      -0.01900627      -0.00940995       0.01035862      -0.01900627      -0.00940995       0.01035862
H       -0.80743309       1.83156889       1.53807002      -0.04150284       0.02192648       0.03466246      -0.04150284       0.02192648       0.03466246
H        0.87786146       1.74496231       2.08821164       0.00635795      -0.01666382      -0.01395990       0.00635795      -0.01666382      -0.01395990
H        0.29564070       3.18789140       1.23695104       0.01596638      -0.02300268      -0.03336975       0.01596638      -0.02300268      -0.03336975
N       -0.04216617       2.04841030      -1.21925592      -0.01062865      -0.00732766      -0.00010846      -0.01062865      -0.00732766      -0.00010846
H        0.26191133       3.00796474      -1.34375833       0.02562384      -0.07863373       0.02142464       0.02562384      -0.07863373       0.02142464