1
Properties=species:S:1:pos:R:3 mp2_energy=-13.600517822134075 free_energy=-13.600517822134075 config_type=IsolatedAtom pbc="F F F"
H        0.00000000       0.00000000       0.00000000
1
Properties=species:S:1:pos:R:3 mp2_energy=-1027.5647719688623 free_energy=-1027.5647719688623 config_type=IsolatedAtom pbc="F F F"
C        0.00000000       0.00000000       0.00000000
1
Properties=species:S:1:pos:R:3 mp2_energy=-2039.1187770138454 free_energy=-2039.1187770138454 config_type=IsolatedAtom pbc="F F F"
O        0.00000000       0.00000000       0.00000000
1
Properties=species:S:1:pos:R:3 mp2_energy=-2711.1240911830328 free_energy=-2711.1240911830328 config_type=IsolatedAtom pbc="F F F"
F        0.00000000       0.00000000       0.00000000
1
Properties=species:S:1:pos:R:3 mp2_energy=-12510.40325874303 free_energy=-12510.40325874303 config_type=IsolatedAtom pbc="F F F"
Cl       0.00000000       0.00000000       0.00000000
