9
Lattice="1.0 0.0 0.0 0.0 1.0 0.0 0.0 0.0 1.0" Properties=species:S:1:pos:R:3:forces:R:3:mp2_forces:R:3 R1=H R2=H R3=CH3 R4=CH3 leaving_group=Cl nucleophile=Cl rxn=sn2 config=rcc label=H_H_CH3_CH3_Cl_Cl_sn2_rcc conformation=0 reactant_id=H_H_CH3_CH3_Cl_none_-_r product_id=H_H_CH3_CH3_none_Cl_sn2_pc mp2_author_energy=-29302.391748605172 mp2_my_energy=0 hash=59123 address=T id=71 energy=-17372.33216497299 free_energy=-17372.33216497299 cell="(1,0,0), (0,1,0), (0,0,1)" mp2_energy=-17372.21082052698 pbc="F F F"
C        0.07299294      -0.03230300       0.02346698      -0.00383810       0.00153641      -0.00068481       0.43050568       0.36280833      -1.28850683
C        1.56238832       0.10954367       0.02502333       0.00020147      -0.00237977      -0.00061630       0.59355146       2.19394919      -1.41837506
H        2.04671478      -0.83903649      -0.00633469      -0.00043287       0.00066109       0.00360198       0.17039258      -0.85799637       0.16386256
F       -0.55701931       1.22764396      -0.02474179       0.00123778      -0.00105707       0.00337249       0.09898262       0.16275510       0.30406599
Cl       0.93106469      -3.39605716      -0.00745568      -0.00050197      -0.00038193      -0.00016305      -0.00558763      -0.00981921       0.00510912
H       -0.24361942      -0.54380039      -0.87217454      -0.00113173       0.00148985       0.00279851      -0.20697184      -0.44656844      -0.07365859
H       -0.23868247      -0.55157868       0.89163055       0.00349898      -0.00246302      -0.00540624      -0.58571350      -0.52059796       0.84555199
H        1.86983220       0.69433427       0.88259010      -0.00213133       0.00382493      -0.00088743       0.20649517      -0.02335340       0.50076501
H        1.93483339       0.72128860      -0.87062746       0.00309776      -0.00123049      -0.00201515      -0.70165452      -0.86117724       0.96118580
9
Properties=species:S:1:pos:R:3:forces:R:3:mp2_forces:R:3 R1=H R2=H R3=CH3 R4=CH3 leaving_group=Cl nucleophile=Cl rxn=sn2 config=rcc label=H_H_CH3_CH3_Cl_Cl_sn2_rcc conformation=0 reactant_id=H_H_CH3_CH3_Cl_none_-_r product_id=H_H_CH3_CH3_none_Cl_sn2_pc mp2_author_energy=-29302.391748605172 mp2_my_energy=0 hash=59123 address=T id=71 energy=-17370.62224714096 free_energy=-17370.62224714096 mp2_energy=-17370.51609152534 pbc="F F F"
C        0.10698999       0.10097919       0.02298758       0.00024833       0.00082338      -0.00004111       0.51961578       0.10656754      -1.34843480
C        1.60020419      -0.03122992       0.02770172      -0.00029781       0.00024352       0.00001820       0.41943971       2.13123915      -1.05919070
H        2.00948632      -0.49846832       0.89356460      -0.00150856       0.00400384       0.00260653       0.16970873      -0.49730695       0.85650835
F        0.87578569       2.62262538      -0.01883113      -0.00036934      -0.00051119       0.00019149       0.00785862       0.03745904      -0.00834031
Cl      -0.64942305      -1.53424107      -0.00839917      -0.00149436       0.00253231      -0.00016929      -0.61554975      -0.50261856       0.08536603
H       -0.21869806       0.66926094      -0.86989590       0.00098313      -0.00352841      -0.00278458       0.21229247      -0.44859747       0.67000349
H       -0.21310183       0.65390885       0.87548467       0.00049392      -0.00400627       0.00274725      -0.33602018       0.20909339       0.58484443
H        1.84401027       1.08012020      -0.00586732       0.00441636      -0.00257230      -0.00014115      -0.09182668      -0.80217054       0.23017595
H        2.02325162      -0.49145163      -0.87019313      -0.00247166       0.00301512      -0.00242734      -0.28551871      -0.23366560      -0.01093243
9
Lattice="1.0 0.0 0.0 0.0 1.0 0.0 0.0 0.0 1.0" Properties=species:S:1:pos:R:3:forces:R:3:mp2_forces:R:3 R1=H R2=H R3=CH3 R4=CH3 leaving_group=Cl nucleophile=Cl rxn=sn2 config=rcc label=H_H_CH3_CH3_Cl_Cl_sn2_rcc conformation=0 reactant_id=H_H_CH3_CH3_Cl_none_-_r product_id=H_H_CH3_CH3_none_Cl_sn2_pc mp2_author_energy=-29302.391748605172 mp2_my_energy=0 hash=59123 address=T id=71 energy=-17372.33216497299 free_energy=-17372.33216497299 cell="(1,0,0), (0,1,0), (0,0,1)" mp2_energy=-17372.24630102543 pbc="F F F"
C        0.08279845      -0.01178914       0.00016176      -0.00383810       0.00153641      -0.00068481       0.65879208      -0.49089034      -0.77525718
C        1.60844526       0.15331557       0.01220060       0.00020147      -0.00237977      -0.00061630      -1.34607502      -0.84944878      -1.71243828
H        2.01108634      -0.87229694      -0.00718515      -0.00043287       0.00066109       0.00360198       0.02602679       0.42828259       0.06088299
F       -0.55787816       1.24399324       0.01006859       0.00123778      -0.00105707       0.00337249       0.07612587      -0.10045333      -0.17332792
Cl       0.90603131      -3.39810308      -0.00595927      -0.00050197      -0.00038193      -0.00016305       0.00219754      -0.00151528      -0.00068590
H       -0.24317859      -0.61123873      -0.88908206      -0.00113173       0.00148985       0.00279851       0.16495589       0.73288010       0.75912326
H       -0.21904965      -0.53910748       0.88885880       0.00349898      -0.00246302      -0.00540624      -0.27384167      -0.24404869       0.30840894
H        1.88644604       0.68010616       0.87929728      -0.00213133       0.00382493      -0.00088743       0.60452934       0.70859032       1.21251566
H        1.91090373       0.71245736      -0.88921703       0.00309776      -0.00123049      -0.00201515       0.08728917      -0.18339658       0.32077844
9
Properties=species:S:1:pos:R:3:forces:R:3:mp2_forces:R:3 R1=H R2=H R3=CH3 R4=CH3 leaving_group=Cl nucleophile=Cl rxn=sn2 config=rcc label=H_H_CH3_CH3_Cl_Cl_sn2_rcc conformation=0 reactant_id=H_H_CH3_CH3_Cl_none_-_r product_id=H_H_CH3_CH3_none_Cl_sn2_pc mp2_author_energy=-29302.391748605172 mp2_my_energy=0 hash=59123 address=T id=71 energy=-17370.62224714096 free_energy=-17370.62224714096 mp2_energy=-17370.55817685872 pbc="F F F"
C        0.11679550       0.12149305      -0.00031764       0.00024833       0.00082338      -0.00004111       1.17909399      -0.78024138       0.29433066
C        1.64626113       0.01254198       0.01487899      -0.00029781       0.00024352       0.00001820      -1.35597725      -0.76558630      -0.71545381
H        1.97385788      -0.53172877       0.89271414      -0.00150856       0.00400384       0.00260653       0.25610418       0.03148502       0.28069903
F        0.87492684       2.63897466       0.01597925      -0.00036934      -0.00051119       0.00019149      -0.01325005      -0.02885482      -0.00470706
Cl      -0.67445643      -1.53628699      -0.00690276      -0.00149436       0.00253231      -0.00016929      -0.09347928      -0.05560582       0.13995737
H       -0.21825723       0.60182260      -0.88680342       0.00098313      -0.00352841      -0.00278458      -0.22911890       0.54298738      -0.46385762
H       -0.19346901       0.66638005       0.87271292       0.00049392      -0.00400627       0.00274725      -0.33025626       0.12880852       0.10684435
H        1.86062411       1.06589209      -0.00916014       0.00441636      -0.00257230      -0.00014115       0.54835034       0.91520193       0.23494465
H        1.99932196      -0.50028287      -0.88878270      -0.00247166       0.00301512      -0.00242734       0.03853323       0.01180547       0.12724244
9
Lattice="1.0 0.0 0.0 0.0 1.0 0.0 0.0 0.0 1.0" Properties=species:S:1:pos:R:3:forces:R:3:mp2_forces:R:3 R1=H R2=H R3=CH3 R4=CH3 leaving_group=Cl nucleophile=Cl rxn=sn2 config=rcc label=H_H_CH3_CH3_Cl_Cl_sn2_rcc conformation=0 reactant_id=H_H_CH3_CH3_Cl_none_-_r product_id=H_H_CH3_CH3_none_Cl_sn2_pc mp2_author_energy=-29302.391748605172 mp2_my_energy=0 hash=59123 address=T id=71 energy=-17372.33216497299 free_energy=-17372.33216497299 cell="(1,0,0), (0,1,0), (0,0,1)" mp2_energy=-17372.21712958555 pbc="F F F"
C        0.09118185      -0.03112827      -0.00556482      -0.00383810       0.00153641      -0.00068481       0.35211696      -0.16941253      -0.67308963
C        1.60969081       0.12080379       0.01676966       0.00020147      -0.00237977      -0.00061630      -1.55791857       2.19621816      -1.54550970
H        2.00142267      -0.84181056      -0.01919633      -0.00043287       0.00066109       0.00360198       0.98463485      -1.75646171      -0.01066582
F       -0.50307456       1.24858465      -0.00169875       0.00123778      -0.00105707       0.00337249      -0.07654092      -0.05541422      -0.06846339
Cl       0.88468542      -3.39297927       0.01184007      -0.00050197      -0.00038193      -0.00016305      -0.00581099      -0.00101775      -0.00031971
H       -0.27075418      -0.59735358      -0.89470747      -0.00113173       0.00148985       0.00279851       0.37018303       0.54991534       0.56753548
H       -0.25040077      -0.56002757       0.86536064       0.00349898      -0.00246302      -0.00540624      -0.21138842      -0.20977439       0.44544445
H        1.90999636       0.66607146       0.90287388      -0.00213133       0.00382493      -0.00088743       0.18060034       0.09776338       0.22527030
H        1.89265918       0.71445239      -0.90711132       0.00309776      -0.00123049      -0.00201515      -0.03587627      -0.65181627       1.05979801
9
Properties=species:S:1:pos:R:3:forces:R:3:mp2_forces:R:3 R1=H R2=H R3=CH3 R4=CH3 leaving_group=Cl nucleophile=Cl rxn=sn2 config=rcc label=H_H_CH3_CH3_Cl_Cl_sn2_rcc conformation=0 reactant_id=H_H_CH3_CH3_Cl_none_-_r product_id=H_H_CH3_CH3_none_Cl_sn2_pc mp2_author_energy=-29302.391748605172 mp2_my_energy=0 hash=59123 address=T id=71 energy=-17370.62224714096 free_energy=-17370.62224714096 mp2_energy=-17370.524658345617 pbc="F F F"
C        0.12517890       0.10215392      -0.00604422       0.00024833       0.00082338      -0.00004111       0.43914286      -0.09454303      -0.35882339
C        1.64750668      -0.01996980       0.01944805      -0.00029781       0.00024352       0.00001820      -1.77467287       1.30847535      -2.17312064
H        1.96419421      -0.50124239       0.88070296      -0.00150856       0.00400384       0.00260653       0.81723677      -1.16469698       1.68395209
F        0.92973044       2.64356607       0.00421191      -0.00036934      -0.00051119       0.00019149      -0.00432626      -0.05879583       0.00608361
Cl      -0.69580232      -1.53116318       0.01089658      -0.00149436       0.00253231      -0.00016929      -0.11759912      -0.26582162       0.04388084
H       -0.24583282       0.61570775      -0.89242883       0.00098313      -0.00352841      -0.00278458       0.32195492      -0.02413538       0.18736724
H       -0.22482013       0.64545996       0.84921476       0.00049392      -0.00400627       0.00274725      -0.09835315       0.22780606       0.32153944
H        1.88417443       1.05185739       0.01441646       0.00441636      -0.00257230      -0.00014115       0.18921263       0.24283659       0.05184477
H        1.98107741      -0.49828784      -0.90667699      -0.00247166       0.00301512      -0.00242734       0.22740422      -0.17112517       0.23727603
9
Lattice="1.0 0.0 0.0 0.0 1.0 0.0 0.0 0.0 1.0" Properties=species:S:1:pos:R:3:forces:R:3:mp2_forces:R:3 R1=H R2=H R3=CH3 R4=CH3 leaving_group=Cl nucleophile=Cl rxn=sn2 config=rcc label=H_H_CH3_CH3_Cl_Cl_sn2_rcc conformation=0 reactant_id=H_H_CH3_CH3_Cl_none_-_r product_id=H_H_CH3_CH3_none_Cl_sn2_pc mp2_author_energy=-29302.391748605172 mp2_my_energy=0 hash=59123 address=T id=71 energy=-17372.33216497299 free_energy=-17372.33216497299 cell="(1,0,0), (0,1,0), (0,0,1)" mp2_energy=-17372.23302120256 pbc="F F F"
C        0.04864879       0.00166457       0.00090303      -0.00383810       0.00153641      -0.00068481       2.00232035      -0.85788882      -0.19106702
C        1.57461965       0.14924898      -0.02529000       0.00020147      -0.00237977      -0.00061630       0.46317137      -0.53356325       0.79637418
H        2.03779120      -0.87963182      -0.03649705      -0.00043287       0.00066109       0.00360198      -0.58577027       1.06450121       0.05527078
F       -0.52961297       1.24448204      -0.02764220       0.00123778      -0.00105707       0.00337249      -0.70731421       0.96633840      -0.00337357
Cl       0.89981244      -3.37517943       0.00319957      -0.00050197      -0.00038193      -0.00016305      -0.00857380      -0.03249864      -0.00094188
H       -0.22572946      -0.56828994      -0.87761583      -0.00113173       0.00148985       0.00279851      -0.49118426      -0.09091089      -0.10024660
H       -0.24568544      -0.53246526       0.90034059       0.00349898      -0.00246302      -0.00540624      -0.21639165      -0.01412074      -0.00571518
H        1.92057977       0.70576042       0.87686431      -0.00213133       0.00382493      -0.00088743      -0.19753217      -0.40842468      -0.44147613
H        1.93238623       0.71903761      -0.88926615       0.00309776      -0.00123049      -0.00201515      -0.25872536      -0.09343258      -0.10882458
9
Properties=species:S:1:pos:R:3:forces:R:3:mp2_forces:R:3 R1=H R2=H R3=CH3 R4=CH3 leaving_group=Cl nucleophile=Cl rxn=sn2 config=rcc label=H_H_CH3_CH3_Cl_Cl_sn2_rcc conformation=0 reactant_id=H_H_CH3_CH3_Cl_none_-_r product_id=H_H_CH3_CH3_none_Cl_sn2_pc mp2_author_energy=-29302.391748605172 mp2_my_energy=0 hash=59123 address=T id=71 energy=-17370.62224714096 free_energy=-17370.62224714096 mp2_energy=-17370.537029247593 pbc="F F F"
C        0.08264584       0.13494676       0.00042363       0.00024833       0.00082338      -0.00004111       1.92520459      -0.83863382       0.50327875
C        1.61243552       0.00847539      -0.02261161      -0.00029781       0.00024352       0.00001820      -0.07698672       0.58992290       1.06464125
H        2.00056274      -0.53906365       0.86340224      -0.00150856       0.00400384       0.00260653      -0.28816127       0.35124121      -0.28764116
F        0.90319203       2.63946346      -0.02173154      -0.00036934      -0.00051119       0.00019149      -0.01546489       0.04220292      -0.00572290
Cl      -0.68067530      -1.51336334       0.00225608      -0.00149436       0.00253231      -0.00016929      -0.34460933      -0.21700079       0.01715043
H       -0.20080810       0.64477139      -0.87533719       0.00098313      -0.00352841      -0.00278458      -0.65550448       0.65927544      -0.81534558
H       -0.22010480       0.67302227       0.88419471       0.00049392      -0.00400627       0.00274725      -0.16839882       0.10320743      -0.00321293
H        1.89475784       1.09154635      -0.01159311       0.00441636      -0.00257230      -0.00014115      -0.16651684      -0.47901283       0.06241543
H        2.02080446      -0.49370262      -0.88883182      -0.00247166       0.00301512      -0.00242734      -0.20956225      -0.21120247      -0.53556329
9
Lattice="1.0 0.0 0.0 0.0 1.0 0.0 0.0 0.0 1.0" Properties=species:S:1:pos:R:3:forces:R:3:mp2_forces:R:3 R1=H R2=H R3=CH3 R4=CH3 leaving_group=Cl nucleophile=Cl rxn=sn2 config=rcc label=H_H_CH3_CH3_Cl_Cl_sn2_rcc conformation=0 reactant_id=H_H_CH3_CH3_Cl_none_-_r product_id=H_H_CH3_CH3_none_Cl_sn2_pc mp2_author_energy=-29302.391748605172 mp2_my_energy=0 hash=59123 address=T id=71 energy=-17372.33216497299 free_energy=-17372.33216497299 cell="(1,0,0), (0,1,0), (0,0,1)" mp2_energy=-17372.20521140191 pbc="F F F"
C        0.11343482      -0.06022920      -0.02281799      -0.00383810       0.00153641      -0.00068481      -0.28368979       1.09645538       0.75796498
C        1.63108113       0.11121957      -0.00978878       0.00020147      -0.00237977      -0.00061630      -1.95250400       1.96285921      -0.09407024
H        2.00924700      -0.86728462      -0.05379364      -0.00043287       0.00066109       0.00360198       0.98354931      -1.27838411       0.09229305
F       -0.52085185       1.25420694       0.02467534       0.00123778      -0.00105707       0.00337249       0.56578103      -0.93803398      -0.29094144
Cl       0.86153751      -3.39085396       0.00700211      -0.00050197      -0.00038193      -0.00016305       0.00334994       0.00603548      -0.01166735
H       -0.25140816      -0.57723861      -0.90514779      -0.00113173       0.00148985       0.00279851       0.00804069       0.04155014      -0.04717165
H       -0.25195110      -0.56046252       0.87720757       0.00349898      -0.00246302      -0.00540624       0.17362786      -0.15577863      -0.27041440
H        1.88686812       0.68696996       0.89975260      -0.00213133       0.00382493      -0.00088743       0.22271112      -0.47640158      -0.39659817
H        1.88103291       0.71265654      -0.89824933       0.00309776      -0.00123049      -0.00201515       0.27913384      -0.25830190       0.26060522
9
Properties=species:S:1:pos:R:3:forces:R:3:mp2_forces:R:3 R1=H R2=H R3=CH3 R4=CH3 leaving_group=Cl nucleophile=Cl rxn=sn2 config=rcc label=H_H_CH3_CH3_Cl_Cl_sn2_rcc conformation=0 reactant_id=H_H_CH3_CH3_Cl_none_-_r product_id=H_H_CH3_CH3_none_Cl_sn2_pc mp2_author_energy=-29302.391748605172 mp2_my_energy=0 hash=59123 address=T id=71 energy=-17370.62224714096 free_energy=-17370.62224714096 mp2_energy=-17370.43594626579 pbc="F F F"
C        0.14743187       0.07305299      -0.02329739       0.00024833       0.00082338      -0.00004111      -0.60078866       1.33978636       0.47204716
C        1.66889700      -0.02955402      -0.00711039      -0.00029781       0.00024352       0.00001820      -2.46242051       2.28477187      -0.78381248
H        1.97201854      -0.52671645       0.84610565      -0.00150856       0.00400384       0.00260653       0.95728111      -1.15358685       1.84296621
F        0.91195315       2.64918836       0.03058600      -0.00036934      -0.00051119       0.00019149       0.05244446      -0.10805213      -0.00341634
Cl      -0.71895023      -1.52903787       0.00605862      -0.00149436       0.00253231      -0.00016929      -0.00165058      -0.33928311      -0.06929785
H       -0.22648680       0.63582272      -0.90286915       0.00098313      -0.00352841      -0.00278458       0.46323382      -0.47038883       0.59261931
H       -0.22637046       0.64502501       0.86106169       0.00049392      -0.00400627       0.00274725       0.52516536      -0.52587928      -0.84286003
H        1.86104619       1.07275589       0.01129518       0.00441636      -0.00257230      -0.00014115       0.22270304      -0.30364364      -0.02025007
H        1.96945114      -0.50008369      -0.89781500      -0.00247166       0.00301512      -0.00242734       0.84403197      -0.72372438      -1.18799591
9
Lattice="1.0 0.0 0.0 0.0 1.0 0.0 0.0 0.0 1.0" Properties=species:S:1:pos:R:3:forces:R:3:mp2_forces:R:3 R1=H R2=H R3=CH3 R4=CH3 leaving_group=Cl nucleophile=Cl rxn=sn2 config=rcc label=H_H_CH3_CH3_Cl_Cl_sn2_rcc conformation=0 reactant_id=H_H_CH3_CH3_Cl_none_-_r product_id=H_H_CH3_CH3_none_Cl_sn2_pc mp2_author_energy=-29302.391748605172 mp2_my_energy=0 hash=59123 address=T id=71 energy=-17372.33216497299 free_energy=-17372.33216497299 cell="(1,0,0), (0,1,0), (0,0,1)" mp2_energy=-17372.272342584387 pbc="F F F"
C        0.07475506      -0.03141907      -0.01701647      -0.00383810       0.00153641      -0.00068481       0.65405944       1.37826541       0.49278176
C        1.57718687       0.16951558       0.01376721       0.00020147      -0.00237977      -0.00061630      -0.00536690      -0.58674830      -1.40665486
H        2.00009674      -0.84486368      -0.00568993      -0.00043287       0.00066109       0.00360198       0.00753000       0.21662099      -0.08419642
F       -0.56630862       1.25013152      -0.03188858       0.00123778      -0.00105707       0.00337249       0.10266114      -0.51833980      -0.03406242
Cl       0.92560613      -3.40078059      -0.00836400      -0.00050197      -0.00038193      -0.00016305      -0.00788551       0.01228407       0.00063579
H       -0.23771724      -0.57226004      -0.88136128      -0.00113173       0.00148985       0.00279851      -0.24185420      -0.34140077      -0.64575595
H       -0.25447989      -0.54931173       0.86706951       0.00349898      -0.00246302      -0.00540624      -0.21201563      -0.22122909       0.31047233
H        1.91188186       0.64562898       0.91762580      -0.00213133       0.00382493      -0.00088743       0.05242249       0.49463441       0.41294504
H        1.93189566       0.73165210      -0.89683944       0.00309776      -0.00123049      -0.00201515      -0.34955084      -0.43408692       0.95383473
9
Properties=species:S:1:pos:R:3:forces:R:3:mp2_forces:R:3 R1=H R2=H R3=CH3 R4=CH3 leaving_group=Cl nucleophile=Cl rxn=sn2 config=rcc label=H_H_CH3_CH3_Cl_Cl_sn2_rcc conformation=0 reactant_id=H_H_CH3_CH3_Cl_none_-_r product_id=H_H_CH3_CH3_none_Cl_sn2_pc mp2_author_energy=-29302.391748605172 mp2_my_energy=0 hash=59123 address=T id=71 energy=-17370.62224714096 free_energy=-17370.62224714096 mp2_energy=-17370.522100659986 pbc="F F F"
C        0.10875211       0.10186312      -0.01749587       0.00024833       0.00082338      -0.00004111       0.62282554       0.19900111       0.63473126
C        1.61500274       0.02874199       0.01644560      -0.00029781       0.00024352       0.00001820      -0.36469813      -2.48477564      -1.03447866
H        1.96286828      -0.50429551       0.89420936      -0.00150856       0.00400384       0.00260653       0.13725844      -0.18507570       0.26347920
F        0.86649638       2.64511294      -0.02597792      -0.00036934      -0.00051119       0.00019149      -0.05692267       0.01192946      -0.00105513
Cl      -0.65488161      -1.53896450      -0.00930749      -0.00149436       0.00253231      -0.00016929      -0.20476429      -0.26229394      -0.02518657
H       -0.21279588       0.64080129      -0.87908264       0.00098313      -0.00352841      -0.00278458      -0.26852912       0.25245495      -0.53383340
H       -0.22889925       0.65617580       0.85092363       0.00049392      -0.00400627       0.00274725      -0.13477954      -0.07117239      -0.03227721
H        1.88605993       1.03141491       0.02916838       0.00441636      -0.00257230      -0.00014115       0.57068199       2.23657483       0.05214413
H        2.02031389      -0.48108813      -0.89640511      -0.00247166       0.00301512      -0.00242734      -0.30107223       0.30335732       0.67647638
9
Lattice="1.0 0.0 0.0 0.0 1.0 0.0 0.0 0.0 1.0" Properties=species:S:1:pos:R:3:forces:R:3:mp2_forces:R:3 R1=H R2=H R3=CH3 R4=CH3 leaving_group=Cl nucleophile=Cl rxn=sn2 config=rcc label=H_H_CH3_CH3_Cl_Cl_sn2_rcc conformation=0 reactant_id=H_H_CH3_CH3_Cl_none_-_r product_id=H_H_CH3_CH3_none_Cl_sn2_pc mp2_author_energy=-29302.391748605172 mp2_my_energy=0 hash=59123 address=T id=71 energy=-17372.33216497299 free_energy=-17372.33216497299 cell="(1,0,0), (0,1,0), (0,0,1)" mp2_energy=-17372.14325770928 pbc="F F F"
C        0.11974065      -0.04228238      -0.01213916      -0.00383810       0.00153641      -0.00068481      -1.99362032       1.48825168       0.89087277
C        1.57208448       0.15618922       0.03001897       0.00020147      -0.00237977      -0.00061630      -0.05234812       0.03883389      -1.48646633
H        1.97283167      -0.81943711       0.00661247      -0.00043287       0.00066109       0.00360198       0.79089275      -1.26847621       0.06540925
F       -0.52919804       1.30564842       0.01151982       0.00123778      -0.00105707       0.00337249       0.60570896      -1.64514147      -0.16242110
Cl       0.90885567      -3.36805211       0.00241607      -0.00050197      -0.00038193      -0.00016305      -0.00808083       0.00694418      -0.00654107
H       -0.24910304      -0.57083931      -0.88999620      -0.00113173       0.00148985       0.00279851       0.14498325       0.19224030      -0.02706164
H       -0.25087561      -0.56538323       0.88054837       0.00349898      -0.00246302      -0.00540624       0.08227512       0.19680242      -0.33274271
H        1.91234087       0.67617535       0.87608490      -0.00213133       0.00382493      -0.00088743       0.28098155       0.74704917       1.37138274
H        1.90398524       0.68234636      -0.85527023       0.00309776      -0.00123049      -0.00201515       0.14920764       0.24349604      -0.31243191
9
Properties=species:S:1:pos:R:3:forces:R:3:mp2_forces:R:3 R1=H R2=H R3=CH3 R4=CH3 leaving_group=Cl nucleophile=Cl rxn=sn2 config=rcc label=H_H_CH3_CH3_Cl_Cl_sn2_rcc conformation=0 reactant_id=H_H_CH3_CH3_Cl_none_-_r product_id=H_H_CH3_CH3_none_Cl_sn2_pc mp2_author_energy=-29302.391748605172 mp2_my_energy=0 hash=59123 address=T id=71 energy=-17370.62224714096 free_energy=-17370.62224714096 mp2_energy=-17370.504424285533 pbc="F F F"
C        0.15373770       0.09099981      -0.01261856       0.00024833       0.00082338      -0.00004111      -1.99524078       1.49342324       0.25758782
C        1.60990035       0.01541563       0.03269736      -0.00029781       0.00024352       0.00001820       0.79690262      -0.44663162      -1.86457353
H        1.93560321      -0.47886894       0.90651176      -0.00150856       0.00400384       0.00260653       0.60302769      -0.55865950       1.18088336
F        0.90360696       2.70062984       0.01743048      -0.00036934      -0.00051119       0.00019149       0.02165854      -0.12015326      -0.01637667
Cl      -0.67163207      -1.50623602       0.00147258      -0.00149436       0.00253231      -0.00016929      -0.21961702      -0.75298708      -0.03812945
H       -0.22418168       0.64222202      -0.88771756       0.00098313      -0.00352841      -0.00278458       0.39153449      -0.25631889       0.42278270
H       -0.22529497       0.64010430       0.86440249       0.00049392      -0.00400627       0.00274725       0.24670538      -0.18462519      -0.50668346
H        1.88651894       1.06196128      -0.01237252       0.00441636      -0.00257230      -0.00014115       0.15398153       0.63702833       0.16660576
H        1.99240347      -0.53039387      -0.85483590      -0.00247166       0.00301512      -0.00242734       0.00104755       0.18892398       0.39790347
9
Lattice="1.0 0.0 0.0 0.0 1.0 0.0 0.0 0.0 1.0" Properties=species:S:1:pos:R:3:forces:R:3:mp2_forces:R:3 R1=H R2=H R3=CH3 R4=CH3 leaving_group=Cl nucleophile=Cl rxn=sn2 config=rcc label=H_H_CH3_CH3_Cl_Cl_sn2_rcc conformation=0 reactant_id=H_H_CH3_CH3_Cl_none_-_r product_id=H_H_CH3_CH3_none_Cl_sn2_pc mp2_author_energy=-29302.391748605172 mp2_my_energy=0 hash=59123 address=T id=71 energy=-17372.33216497299 free_energy=-17372.33216497299 cell="(1,0,0), (0,1,0), (0,0,1)" mp2_energy=-17372.24358095547 pbc="F F F"
C        0.11399880      -0.01769280      -0.02211817      -0.00383810       0.00153641      -0.00068481      -1.11133953      -0.72072394      -0.01383535
C        1.61184373       0.14615511      -0.01307859       0.00020147      -0.00237977      -0.00061630      -1.26584009       0.52074613      -0.57517091
H        2.03893848      -0.82220693      -0.02292867      -0.00043287       0.00066109       0.00360198       0.49217855      -1.10011226      -0.14573932
F       -0.55713980       1.23602429      -0.03220283       0.00123778      -0.00105707       0.00337249       0.41396241      -0.05615534       0.04030236
Cl       0.85273219      -3.43045693       0.01988227      -0.00050197      -0.00038193      -0.00016305       0.01393277       0.02530777       0.00324389
H       -0.29575349      -0.58222627      -0.89884061      -0.00113173       0.00148985       0.00279851       0.71871401       0.41358024       0.74351570
H       -0.21422991      -0.54383770       0.88870207       0.00349898      -0.00246302      -0.00540624       0.07435404       0.14280197      -0.39684172
H        1.92460535       0.66091222       0.86495385      -0.00213133       0.00382493      -0.00088743       0.25361212       0.54145656       0.83932031
H        1.89690366       0.72056628      -0.87673279       0.00309776      -0.00123049      -0.00201515       0.41042572       0.23309887      -0.49479496
9
Properties=species:S:1:pos:R:3:forces:R:3:mp2_forces:R:3 R1=H R2=H R3=CH3 R4=CH3 leaving_group=Cl nucleophile=Cl rxn=sn2 config=rcc label=H_H_CH3_CH3_Cl_Cl_sn2_rcc conformation=0 reactant_id=H_H_CH3_CH3_Cl_none_-_r product_id=H_H_CH3_CH3_none_Cl_sn2_pc mp2_author_energy=-29302.391748605172 mp2_my_energy=0 hash=59123 address=T id=71 energy=-17370.62224714096 free_energy=-17370.62224714096 mp2_energy=-17370.517050885912 pbc="F F F"
C        0.14799585       0.11558939      -0.02259757       0.00024833       0.00082338      -0.00004111      -0.83975426       0.17408701       0.53247105
C        1.64965960       0.00538152      -0.01040020      -0.00029781       0.00024352       0.00001820      -1.35948649      -0.03873022       0.20298736
H        2.00171002      -0.48163876       0.87697062      -0.00150856       0.00400384       0.00260653       0.25081228      -0.39332496       0.57255163
F        0.87566520       2.63100571      -0.02629217      -0.00036934      -0.00051119       0.00019149      -0.00403274      -0.03232406       0.00664190
Cl      -0.72775555      -1.56864084       0.01893878      -0.00149436       0.00253231      -0.00016929       0.43714235       0.56177052       0.00647039
H       -0.27083213       0.63083506      -0.89656197       0.00098313      -0.00352841      -0.00278458       0.46873649      -0.24270122       0.37638615
H       -0.18864927       0.66164983       0.87255619       0.00049392      -0.00400627       0.00274725       0.07186337      -0.34486868      -0.55941495
H        1.89878342       1.04669815      -0.02350357       0.00441636      -0.00257230      -0.00014115       0.29897169       1.08249150       0.00273573