9
Lattice="1.0 0.0 0.0 0.0 1.0 0.0 0.0 0.0 1.0" Properties=species:S:1:pos:R:3:forces:R:3 R1=H R2=H R3=CH3 R4=CH3 leaving_group=Cl nucleophile=Cl rxn=sn2 config=rcc label=H_H_CH3_CH3_Cl_Cl_sn2_rcc conformation=0 reactant_id=H_H_CH3_CH3_Cl_none_-_r product_id=H_H_CH3_CH3_none_Cl_sn2_pc mp2_author_energy=-29302.391748605172 mp2_my_energy=0 hash=59123 address=T id=71 energy=-17372.33216497299 free_energy=-17372.33216497299 cell="(1,0,0), (0,1,0), (0,0,1)" pbc="F F F"
C        0.09142836      -0.02057665       0.00018700      -0.00383810       0.00153641      -0.00068481
C        1.58722280       0.14924827      -0.00111085       0.00020147      -0.00237977      -0.00061630
H        2.03195864      -0.84661872      -0.00635447      -0.00043287       0.00066109       0.00360198
F       -0.53491861       1.24651010      -0.01033438       0.00123778      -0.00105707       0.00337249
Cl       0.88543890      -3.39675651       0.00603569      -0.00050197      -0.00038193      -0.00016305
H       -0.24798218      -0.56713807      -0.87777751      -0.00113173       0.00148985       0.00279851
H       -0.24989953      -0.55273097       0.88632969       0.00349898      -0.00246302      -0.00540624
H        1.91405155       0.69490750       0.88785996      -0.00213133       0.00382493      -0.00088743
H        1.90859158       0.70242064      -0.88742268       0.00309776      -0.00123049      -0.00201515
9
Lattice="1.0 0.0 0.0 0.0 1.0 0.0 0.0 0.0 1.0" Properties=species:S:1:pos:R:3:forces:R:3 R1=H R2=H R3=CH3 R4=CH3 leaving_group=Cl nucleophile=Cl rxn=sn2 config=rcc label=H_H_CH3_CH3_Cl_Cl_sn2_rcc conformation=0 reactant_id=H_H_CH3_CH3_Cl_none_-_r product_id=H_H_CH3_CH3_none_Cl_sn2_pc mp2_author_energy=-29302.391748605172 mp2_my_energy=0 hash=59123 address=T id=71 energy=-17372.331186202526 free_energy=-17372.331186202526 cell="(1,0,0), (0,1,0), (0,0,1)" stress="-1.7620613594197385e-10 4.440670400716893e-09 -4.988428495372369e-10 4.440670400716893e-09 -3.005194365673708e-09 7.62108839648223e-09 -4.988428495372369e-10 7.62108839648223e-09 1.940814085163823e-10" pbc="F F F"
C        0.09154641      -0.02096480       0.01501994      -0.00034243       0.00059936      -0.00085199
C        1.58752062       0.14935931       0.00953828      -0.00025040      -0.00036223      -0.00064572
H        2.03263831      -0.84465394       0.06652568      -0.00096624      -0.00113259      -0.00590542
F       -0.53624646       1.24423595      -0.03672072       0.00038918       0.00106579       0.00030963
Cl       0.88354481      -3.39341258      -0.08883326       0.00240130      -0.00107553       0.00590204
H       -0.24788840      -0.59833642      -0.84222478      -0.00063115       0.00168889      -0.00158317
H       -0.24908587      -0.52215172       0.91998813      -0.00079053      -0.00016173      -0.00139936
H        1.90906208       0.75202783       0.86314252       0.00074997      -0.00512308       0.00250461
H        1.91480002       0.64316195      -0.90902335      -0.00055970       0.00450112       0.00166938
9
Lattice="1.0 0.0 0.0 0.0 1.0 0.0 0.0 0.0 1.0" Properties=species:S:1:pos:R:3:forces:R:3 R1=H R2=H R3=CH3 R4=CH3 leaving_group=Cl nucleophile=Cl rxn=sn2 config=rcc label=H_H_CH3_CH3_Cl_Cl_sn2_rcc conformation=0 reactant_id=H_H_CH3_CH3_Cl_none_-_r product_id=H_H_CH3_CH3_none_Cl_sn2_pc mp2_author_energy=-29302.391748605172 mp2_my_energy=0 hash=59123 address=T id=71 energy=-17372.328313307815 free_energy=-17372.328313307815 cell="(1,0,0), (0,1,0), (0,0,1)" stress="-2.013339875646985e-10 1.3561280325534622e-08 -8.18185638557163e-10 1.3561280325534622e-08 -1.502483932963039e-08 1.2924388711001329e-08 -8.18185638557163e-10 1.2924388711001329e-08 7.54864539946106e-10" pbc="F F F"
C        0.09025922      -0.01961136       0.03197146      -0.00101650       0.00217875      -0.00107060
C        1.58668164       0.14770679       0.02158992      -0.00079413      -0.00076119      -0.00097853
H        2.03090801      -0.84071215       0.14358013      -0.00313796      -0.00396868      -0.01430441
F       -0.53534195       1.24353233      -0.06882400       0.00103586       0.00296089      -0.00360788
Cl       0.88997665      -3.39205529      -0.19381091       0.00732849      -0.00562833       0.00972916
H       -0.24913416      -0.63100294      -0.80066117      -0.00158660       0.00128742      -0.00033029
H       -0.25155695      -0.48203049       0.95761547      -0.00238501       0.00446329      -0.00043601
H        1.90467290       0.80768037       0.83329181       0.00261496      -0.01205057       0.00744033
H        1.91942616       0.57575833      -0.92734026      -0.00205912       0.01151841       0.00355823
9
Lattice="1.0 0.0 0.0 0.0 1.0 0.0 0.0 0.0 1.0" Properties=species:S:1:pos:R:3:forces:R:3 R1=H R2=H R3=CH3 R4=CH3 leaving_group=Cl nucleophile=Cl rxn=sn2 config=rcc label=H_H_CH3_CH3_Cl_Cl_sn2_rcc conformation=0 reactant_id=H_H_CH3_CH3_Cl_none_-_r product_id=H_H_CH3_CH3_none_Cl_sn2_pc mp2_author_energy=-29302.391748605172 mp2_my_energy=0 hash=59123 address=T id=71 energy=-17372.32207927265 free_energy=-17372.32207927265 cell="(1,0,0), (0,1,0), (0,0,1)" stress="1.5835951012830544e-09 2.443646222308843e-08 -1.2930572658685998e-09 2.443646222308843e-08 -3.7396429645070495e-08 1.6895574559318157e-08 -1.2930572658685998e-09 1.6895574559318157e-08 5.063978440670268e-10" pbc="F F F"
C        0.09068033      -0.02284356       0.04600111      -0.00168083       0.00465880      -0.00061537
C        1.58729485       0.14670290       0.03179795      -0.00156147      -0.00061816      -0.00095888
H        2.03555427      -0.82684779       0.23132726      -0.00654825      -0.00999487      -0.02904564
F       -0.53593547       1.23755091      -0.07943313       0.00132660       0.00452713      -0.01493349
Cl       0.88321908      -3.37614950      -0.28789177       0.01320966      -0.01398529       0.01215852
H       -0.24880067      -0.65241775      -0.77231063      -0.00144469      -0.00360728       0.00544405
H       -0.24928911      -0.46487321       0.98266613      -0.00419942       0.01589856       0.00380469
H        1.89533965       0.87111118       0.79080427       0.00639482      -0.02253648       0.01827160
H        1.92782859       0.49703241      -0.94554874      -0.00549642       0.02565757       0.00587452
9
Lattice="1.0 0.0 0.0 0.0 1.0 0.0 0.0 0.0 1.0" Properties=species:S:1:pos:R:3:forces:R:3 R1=H R2=H R3=CH3 R4=CH3 leaving_group=Cl nucleophile=Cl rxn=sn2 config=rcc label=H_H_CH3_CH3_Cl_Cl_sn2_rcc conformation=0 reactant_id=H_H_CH3_CH3_Cl_none_-_r product_id=H_H_CH3_CH3_none_Cl_sn2_pc mp2_author_energy=-29302.391748605172 mp2_my_energy=0 hash=59123 address=T id=71 energy=-17372.3110925773 free_energy=-17372.3110925773 cell="(1,0,0), (0,1,0), (0,0,1)" stress="6.545561924397186e-09 2.8216120750474296e-08 -2.453844014219192e-09 2.8216120750474296e-08 -6.408990216311871e-08 2.0882228950842127e-08 -2.453844014219192e-09 2.0882228950842127e-08 -5.626598726603768e-10" pbc="F F F"
C        0.09312300      -0.03088818       0.05152854      -0.00158459       0.00662880      -0.00024237
C        1.58981461       0.14699876       0.03649855      -0.00210738       0.00061185      -0.00088833
H        2.04727166      -0.80476746       0.30592527      -0.00901768      -0.01747554      -0.04541916
F       -0.53780645       1.22913875      -0.05820736       0.00109431       0.00535207      -0.02898772
Cl       0.86181313      -3.34979256      -0.33743433       0.01533974      -0.02348823       0.01443934
H       -0.24731818      -0.65228591      -0.77211136       0.00060848      -0.01156609       0.01197177
H       -0.24259594      -0.48444726       0.98425319      -0.00459203       0.02801179       0.00958204
H        1.88218838       0.92593569       0.74602820       0.00970665      -0.03199190       0.03260024
H        1.93940131       0.42937375      -0.95906826      -0.00944749       0.04391725       0.00694418
9
Lattice="1.0 0.0 0.0 0.0 1.0 0.0 0.0 0.0 1.0" Properties=species:S:1:pos:R:3:forces:R:3 R1=H R2=H R3=CH3 R4=CH3 leaving_group=Cl nucleophile=Cl rxn=sn2 config=rcc label=H_H_CH3_CH3_Cl_Cl_sn2_rcc conformation=0 reactant_id=H_H_CH3_CH3_Cl_none_-_r product_id=H_H_CH3_CH3_none_Cl_sn2_pc mp2_author_energy=-29302.391748605172 mp2_my_energy=0 hash=59123 address=T id=71 energy=-17372.295126509685 free_energy=-17372.295126509685 cell="(1,0,0), (0,1,0), (0,0,1)" stress="1.3364334285461833e-08 2.7091136335675482e-08 -4.161218664411738e-09 2.7091136335675482e-08 -1.0089786826454851e-07 2.307886342481595e-08 -4.161218664411738e-09 2.307886342481595e-08 -2.886048572999165e-09" pbc="F F F"
C        0.09483560      -0.03912498       0.05309756      -0.00096848       0.00834666       0.00000790
C        1.59236500       0.14582845       0.03841460      -0.00252783       0.00274257      -0.00082202
H        2.05859948      -0.78070964       0.37149484      -0.01011052      -0.02558013      -0.05862529
F       -0.53899646       1.22260272      -0.02143283       0.00096436       0.00695212      -0.04224086
Cl       0.84360893      -3.31948724      -0.36392663       0.01480506      -0.03588494       0.01567767
H       -0.24885906      -0.63823820      -0.78516213       0.00305813      -0.01973657       0.01722180
H       -0.23710286      -0.51843085       0.97398283      -0.00366772       0.03831188       0.01589277
H        1.86926154       0.97129895       0.69967404       0.01140145      -0.03701660       0.04766320
H        1.95217934       0.36552638      -0.96872983      -0.01295445       0.06186501       0.00522483
9
Lattice="1.0 0.0 0.0 0.0 1.0 0.0 0.0 0.0 1.0" Properties=species:S:1:pos:R:3:forces:R:3 R1=H R2=H R3=CH3 R4=CH3 leaving_group=Cl nucleophile=Cl rxn=sn2 config=rcc label=H_H_CH3_CH3_Cl_Cl_sn2_rcc conformation=0 reactant_id=H_H_CH3_CH3_Cl_none_-_r product_id=H_H_CH3_CH3_none_Cl_sn2_pc mp2_author_energy=-29302.391748605172 mp2_my_energy=0 hash=59123 address=T id=71 energy=-17372.266612935106 free_energy=-17372.266612935106 cell="(1,0,0), (0,1,0), (0,0,1)" stress="1.9753276362204166e-08 2.5049924845766724e-08 -6.0633461524409245e-09 2.5049924845766724e-08 -1.7840978694696495e-07 1.8840189527967024e-08 -6.0633461524409245e-09 1.8840189527967024e-08 -5.534981934484056e-09" pbc="F F F"
C        0.09569462      -0.04975853       0.05373645      -0.00039019       0.01211155       0.00056585
C        1.59549285       0.14164938       0.03982369      -0.00306269       0.00736100      -0.00047275
H        2.07156846      -0.74582601       0.45365047      -0.01202974      -0.03462129      -0.06823966
F       -0.53973942       1.21428435       0.03530756      -0.00083150       0.01136304      -0.05511122
Cl       0.82632566      -3.27230369      -0.38891567       0.01400107      -0.06222981       0.01398586
H       -0.25414518      -0.61136688      -0.80717547       0.00598403      -0.02678324       0.02163502
H       -0.23282181      -0.56835902       0.95369845      -0.00190435       0.04901388       0.02340921
H        1.85377879       1.02255115       0.63327195       0.01453145      -0.03630681       0.06394119
H        1.96973753       0.27839483      -0.97598498      -0.01629807       0.08009168       0.00028650
9
Lattice="1.0 0.0 0.0 0.0 1.0 0.0 0.0 0.0 1.0" Properties=species:S:1:pos:R:3:forces:R:3 R1=H R2=H R3=CH3 R4=CH3 leaving_group=Cl nucleophile=Cl rxn=sn2 config=rcc label=H_H_CH3_CH3_Cl_Cl_sn2_rcc conformation=0 reactant_id=H_H_CH3_CH3_Cl_none_-_r product_id=H_H_CH3_CH3_none_Cl_sn2_pc mp2_author_energy=-29302.391748605172 mp2_my_energy=0 hash=59123 address=T id=71 energy=-17372.22407643593 free_energy=-17372.22407643593 cell="(1,0,0), (0,1,0), (0,0,1)" stress="1.677483961013724e-08 3.312230326280041e-08 -4.0250088730127255e-09 3.312230326280041e-08 -3.346441027231537e-07 -6.040143945029083e-09 -4.0250088730127255e-09 -6.040143945029083e-09 -6.957977619921222e-09" pbc="F F F"
C        0.09580927      -0.06434547       0.05368745      -0.00172706       0.02291683       0.00239209
C        1.59916156       0.13222859       0.04077548      -0.00440889       0.01760573       0.00081813
H        2.08645333      -0.70061835       0.54360852      -0.02469309      -0.04108633      -0.06550598
F       -0.53827026       1.20101589       0.10540151      -0.01241838       0.02002700      -0.05869922
Cl       0.81068186      -3.19670524      -0.41083628       0.02007058      -0.11442865       0.00347038
H       -0.26271612      -0.57676988      -0.83358731       0.01053594      -0.02588109       0.02380094
H       -0.23099869      -0.62901005       0.92501540       0.00049164       0.05871886       0.02879610
H        1.83524615       1.07034790       0.54962466       0.03151441      -0.02424540       0.07057267
H        1.99052442       0.17312220      -0.97627698      -0.01936516       0.08637305      -0.00564512
9
Lattice="1.0 0.0 0.0 0.0 1.0 0.0 0.0 0.0 1.0" Properties=species:S:1:pos:R:3:forces:R:3 R1=H R2=H R3=CH3 R4=CH3 leaving_group=Cl nucleophile=Cl rxn=sn2 config=rcc label=H_H_CH3_CH3_Cl_Cl_sn2_rcc conformation=0 reactant_id=H_H_CH3_CH3_Cl_none_-_r product_id=H_H_CH3_CH3_none_Cl_sn2_pc mp2_author_energy=-29302.391748605172 mp2_my_energy=0 hash=59123 address=T id=71 energy=-17372.163287754243 free_energy=-17372.163287754243 cell="(1,0,0), (0,1,0), (0,0,1)" stress="2.784287442638578e-08 7.945635313677486e-08 1.9322204942694606e-08 7.945635313677486e-08 -7.343022871836279e-07 -9.823709827103056e-08 1.9322204942694606e-08 -9.823709827103056e-08 2.811297802753624e-09" pbc="F F F"
C        0.09721749      -0.08958105       0.05165514      -0.01277084       0.06943487       0.01049690
C        1.60391600       0.11188941       0.04017214      -0.01487522       0.05086676       0.00481037
H        2.11371332      -0.65174334       0.62285487      -0.09806133      -0.04909390      -0.04784339
F       -0.52409369       1.17930667       0.17405512      -0.05742429       0.03801650      -0.03959919
Cl       0.79077297      -3.06840074      -0.41924151       0.05968284      -0.23293364      -0.02962372
H       -0.27593264      -0.54552468      -0.86020315       0.03101274      -0.01873362       0.03211667
H       -0.23230281      -0.69534678       0.89259105       0.01167581       0.06819525       0.02000900
H        1.79967452       1.09991814       0.46491913       0.11961506       0.01326712       0.05470235
H        2.01292635       0.06874796      -0.96939034      -0.03885479       0.06098067      -0.00506897
9
Lattice="1.0 0.0 0.0 0.0 1.0 0.0 0.0 0.0 1.0" Properties=species:S:1:pos:R:3:forces:R:3 R1=H R2=H R3=CH3 R4=CH3 leaving_group=Cl nucleophile=Cl rxn=sn2 config=rcc label=H_H_CH3_CH3_Cl_Cl_sn2_rcc conformation=0 reactant_id=H_H_CH3_CH3_Cl_none_-_r product_id=H_H_CH3_CH3_none_Cl_sn2_pc mp2_author_energy=-29302.391748605172 mp2_my_energy=0 hash=59123 address=T id=71 energy=-17372.05003530343 free_energy=-17372.05003530343 cell="(1,0,0), (0,1,0), (0,0,1)" stress="2.445703299226277e-07 -2.7632630590432754e-08 3.872386626243582e-08 -2.7632630590432754e-08 -1.9605777423965345e-06 -3.7663626847381454e-07 3.872386626243582e-08 -3.7663626847381454e-07 9.35876273164423e-08" pbc="F F F"
C        0.10453142      -0.13000796       0.04587970      -0.10287057       0.31091465       0.03747565
C        1.61258525       0.08207671       0.03753479      -0.06805313       0.16240442       0.01608222
H        2.17071655      -0.62092693       0.65409136      -0.30133708      -0.07256255      -0.04305467
F       -0.49078304       1.15711314       0.19922792      -0.08876584       0.02772888       0.00422453
Cl       0.75660027      -2.93230411      -0.40442680       0.13352456      -0.55937387      -0.09135467
H       -0.29441789      -0.53319963      -0.87910457       0.09652609      -0.09010184       0.07502393
H       -0.23925742      -0.73591373       0.88061021       0.05693883       0.04662084      -0.05856163
H        1.72978045       1.09359623       0.42941706       0.38606855       0.14430030       0.05358719
H        2.03613591       0.02883186      -0.96581723      -0.11203142       0.03006917       0.00657745
9
Lattice="1.0 0.0 0.0 0.0 1.0 0.0 0.0 0.0 1.0" Properties=species:S:1:pos:R:3:forces:R:3 R1=H R2=H R3=CH3 R4=CH3 leaving_group=Cl nucleophile=Cl rxn=sn2 config=rcc label=H_H_CH3_CH3_Cl_Cl_sn2_rcc conformation=0 reactant_id=H_H_CH3_CH3_Cl_none_-_r product_id=H_H_CH3_CH3_none_Cl_sn2_pc mp2_author_energy=-29302.391748605172 mp2_my_energy=0 hash=59123 address=T id=71 energy=-17371.703099413695 free_energy=-17371.703099413695 cell="(1,0,0), (0,1,0), (0,0,1)" stress="8.110062682503381e-07 -7.630489158136319e-07 -5.049455206567084e-08 -7.630489158136319e-07 -3.3067907851325507e-06 -8.580831253001313e-07 -5.049455206567084e-08 -8.580831253001313e-07 2.56550913751231e-07" pbc="F F F"
C        0.13054116      -0.20877560       0.03649864      -0.67874675       1.69821327       0.20593902
C        1.62982416       0.04086787       0.03347319      -0.18521415       0.31079704       0.02976928
H        2.24678470      -0.60151596       0.66646304      -0.47880136      -0.09462823      -0.05839894
F       -0.46842044       1.15001310       0.19939234       0.22825366      -0.60154200       0.00037035
Cl       0.72304689      -2.79021352      -0.38227509       0.21740301      -1.13167620      -0.18727824
H       -0.31903820      -0.50966802      -0.89819576       0.20108156      -0.39435765       0.09768238
H       -0.25367667      -0.74825562       0.89521026       0.14090134      -0.10694035      -0.21146694
H        1.63190577       1.05764963       0.41402544       0.73994005       0.33245754       0.09908430
H        2.06492414       0.01916372      -0.96717961      -0.18481736      -0.01232344       0.02429878
9
Lattice="1.0 0.0 0.0 0.0 1.0 0.0 0.0 0.0 1.0" Properties=species:S:1:pos:R:3:forces:R:3 R1=H R2=H R3=CH3 R4=CH3 leaving_group=Cl nucleophile=Cl rxn=sn2 config=rcc label=H_H_CH3_CH3_Cl_Cl_sn2_rcc conformation=0 reactant_id=H_H_CH3_CH3_Cl_none_-_r product_id=H_H_CH3_CH3_none_Cl_sn2_pc mp2_author_energy=-29302.391748605172 mp2_my_energy=0 hash=59123 address=T id=71 energy=-17371.014740080594 free_energy=-17371.014740080594 cell="(1,0,0), (0,1,0), (0,0,1)" stress="6.590139228899308e-07 -1.2859942886619032e-06 -1.2849037440248792e-07 -1.2859942886619032e-06 -2.3697399959064513e-06 -7.494728557115263e-07 -1.2849037440248792e-07 -7.494728557115263e-07 -9.452891320656983e-08" pbc="F F F"
C        0.18285224      -0.33969659       0.02073199      -1.08690328       3.07352416       0.42527515
C        1.64410421       0.01691332       0.03113121      -0.11154725       0.24165911       0.01829087
H        2.28356574      -0.59393410       0.67138359      -0.31685243      -0.08165113      -0.03673418
F       -0.48609147       1.19635327       0.19977652       0.53010170      -1.23880868      -0.07584288
Cl       0.70633961      -2.70288274      -0.36813378       0.24386112      -1.32905794      -0.22490574
H       -0.33458225      -0.47909917      -0.90576879       0.13424765      -0.54940879      -0.09642520
H       -0.26450067      -0.74013580       0.91143091       0.10251230      -0.32731041      -0.09711685
H        1.57484690       1.03221373       0.40584002       0.61217619       0.24842529       0.07895227
H        2.07935720       0.01953368      -0.96897924      -0.10759599      -0.03737161       0.00850656
9
Lattice="1.0 0.0 0.0 0.0 1.0 0.0 0.0 0.0 1.0" Properties=species:S:1:pos:R:3:forces:R:3 R1=H R2=H R3=CH3 R4=CH3 leaving_group=Cl nucleophile=Cl rxn=sn2 config=rcc label=H_H_CH3_CH3_Cl_Cl_sn2_rcc conformation=0 reactant_id=H_H_CH3_CH3_Cl_none_-_r product_id=H_H_CH3_CH3_none_Cl_sn2_pc mp2_author_energy=-29302.391748605172 mp2_my_energy=0 hash=59123 address=T id=71 energy=-17370.572837981177 free_energy=-17370.572837981177 cell="(1,0,0), (0,1,0), (0,0,1)" stress="2.466570150149442e-07 -1.0278944890405936e-06 -1.1172576867847512e-07 -1.0278944890405936e-06 -1.1510503371001388e-06 -3.899377413422918e-07 -1.1172576867847512e-07 -3.899377413422918e-07 -3.0938402111237005e-07" pbc="F F F"
C        0.21817101      -0.43956109       0.00687207      -0.67851283       2.11408076       0.30975496
C        1.64772573       0.00905480       0.03053321      -0.02194058       0.14690972       0.00812080
H        2.29379471      -0.59115924       0.67273955      -0.18259348      -0.04693316      -0.02015665
F       -0.50335926       1.23659869       0.20243249       0.37184221      -0.84693225      -0.05972879
Cl       0.69843725      -2.65966343      -0.36094182       0.17363782      -0.86932836      -0.14953374
H       -0.33894686      -0.46118095      -0.90261908       0.00608508      -0.35690661      -0.17387773
H       -0.26782548      -0.72955429       0.91458752       0.00324020      -0.26655371       0.03740874
H        1.55494801       1.02421788       0.40304714       0.38024834       0.15470346       0.04490304
H        2.08294639       0.02051322      -0.96923862      -0.05200675      -0.02903985       0.00310937
9
Lattice="1.0 0.0 0.0 0.0 1.0 0.0 0.0 0.0 1.0" Properties=species:S:1:pos:R:3:forces:R:3 R1=H R2=H R3=CH3 R4=CH3 leaving_group=Cl nucleophile=Cl rxn=sn2 config=rcc label=H_H_CH3_CH3_Cl_Cl_sn2_rcc conformation=0 reactant_id=H_H_CH3_CH3_Cl_none_-_r product_id=H_H_CH3_CH3_none_Cl_sn2_pc mp2_author_energy=-29302.391748605172 mp2_my_energy=0 hash=59123 address=T id=71 energy=-17370.36646226057 free_energy=-17370.36646226057 cell="(1,0,0), (0,1,0), (0,0,1)" stress="4.2591340947536626e-08 -3.69390527015835e-07 -3.4727507520603334e-08 -3.69390527015835e-07 -1.796941613174425e-07 -8.558208169281773e-08 -3.4727507520603334e-08 -8.558208169281773e-08 -1.7017825160383964e-07" pbc="F F F"
C        0.24917033      -0.53614307      -0.00729841      -0.17000365       0.55545722       0.08247176
C        1.64873170       0.00234143       0.03013902       0.00249680       0.04740575       0.00133777
H        2.30203966      -0.58884827       0.67388964      -0.05674803      -0.00862022      -0.00022089
F       -0.52041302       1.27528549       0.20543998       0.11968863      -0.24957413      -0.01094424
Cl       0.69053454      -2.61990482      -0.35426845       0.05399443      -0.22852689      -0.04225538
H       -0.33923785      -0.44479409      -0.89467430      -0.02698201      -0.08394247      -0.08116640
H       -0.26795514      -0.71743614       0.91285895      -0.02168664      -0.07372260       0.04383896
H        1.53756379       1.01725304       0.40067795       0.10880046       0.05446943       0.00599093
H        2.08545749       0.02151202      -0.96935194      -0.00955999      -0.01294609       0.00094749
9
Lattice="1.0 0.0 0.0 0.0 1.0 0.0 0.0 0.0 1.0" Properties=species:S:1:pos:R:3:forces:R:3 R1=H R2=H R3=CH3 R4=CH3 leaving_group=Cl nucleophile=Cl rxn=sn2 config=rcc label=H_H_CH3_CH3_Cl_Cl_sn2_rcc conformation=0 reactant_id=H_H_CH3_CH3_Cl_none_-_r product_id=H_H_CH3_CH3_none_Cl_sn2_pc mp2_author_energy=-29302.391748605172 mp2_my_energy=0 hash=59123 address=T id=71 energy=-17370.3648497096 free_energy=-17370.3648497096 cell="(1,0,0), (0,1,0), (0,0,1)" stress="-4.9765461235134864e-08 4.529845485659223e-07 6.926877170170465e-08 4.529845485659223e-07 -2.1913205107848063e-07 -2.0217106886476177e-08 6.926877170170465e-08 -2.0217106886476177e-08 1.3090395399629543e-07" pbc="F F F"
C        0.27670588      -0.62607392      -0.02072210       0.12270990      -0.36438660      -0.05528577
C        1.64834276      -0.00533857       0.02982380       0.00504775      -0.05077160      -0.00687887
H        2.31087527      -0.58686727       0.67473569       0.05378314       0.02692194       0.01831962
F       -0.54004429       1.31569201       0.20823047      -0.11980133       0.25824812       0.03461509
Cl       0.68189657      -2.58276429      -0.34796906      -0.04507961       0.11092379       0.01066529
H       -0.33491936      -0.43094015      -0.88154231       0.04218398       0.05159342       0.06926790
H       -0.26436912      -0.70568554       0.90567801       0.04251182       0.03730597      -0.04297638
H        1.51989903       1.00879275       0.39858695      -0.12718050      -0.05910505      -0.02759974
H        2.08750478       0.02245058      -0.96940900       0.02582486      -0.01073000      -0.00012715
9
Lattice="1.0 0.0 0.0 0.0 1.0 0.0 0.0 0.0 1.0" Properties=species:S:1:pos:R:3:forces:R:3 R1=H R2=H R3=CH3 R4=CH3 leaving_group=Cl nucleophile=Cl rxn=sn2 config=rcc label=H_H_CH3_CH3_Cl_Cl_sn2_rcc conformation=0 reactant_id=H_H_CH3_CH3_Cl_none_-_r product_id=H_H_CH3_CH3_none_Cl_sn2_pc mp2_author_energy=-29302.391748605172 mp2_my_energy=0 hash=59123 address=T id=71 energy=-17370.47934657649 free_energy=-17370.47934657649 cell="(1,0,0), (0,1,0), (0,0,1)" stress="-1.1203167006302629e-07 8.519870563252958e-07 1.3360996380528763e-07 8.519870563252958e-07 -7.734281894024816e-07 -1.09879680138372e-07 1.3360996380528763e-07 -1.09879680138372e-07 1.9200196224993313e-07" pbc="F F F"
C        0.30833575      -0.71200623      -0.03367722       0.16952095      -0.46018650      -0.07016071
C        1.65110580      -0.02214633       0.02714314       0.01493470      -0.08999723      -0.01510940
H        2.32907580      -0.57759908       0.68031681       0.09507635       0.05313154       0.03471008
F       -0.57742136       1.39984448       0.21900705      -0.20183111       0.45039938       0.06435595
Cl       0.66848500      -2.56675498      -0.34756550      -0.07133084       0.08668541      -0.00064175
H       -0.31873722      -0.42060089      -0.86120587       0.08635333       0.05665055       0.10874861
H       -0.24767748      -0.69893742       0.89236500       0.08984849       0.03549746      -0.07182475
H        1.47637641       0.98768503       0.39070221      -0.23342152      -0.11090351      -0.04912018
H        2.09634881       0.01978100      -0.96967317       0.05084966      -0.02127710      -0.00095784
9
Lattice="1.0 0.0 0.0 0.0 1.0 0.0 0.0 0.0 1.0" Properties=species:S:1:pos:R:3:forces:R:3 R1=H R2=H R3=CH3 R4=CH3 leaving_group=Cl nucleophile=Cl rxn=sn2 config=rcc label=H_H_CH3_CH3_Cl_Cl_sn2_rcc conformation=0 reactant_id=H_H_CH3_CH3_Cl_none_-_r product_id=H_H_CH3_CH3_none_Cl_sn2_pc mp2_author_energy=-29302.391748605172 mp2_my_energy=0 hash=59123 address=T id=71 energy=-17370.574992266316 free_energy=-17370.574992266316 cell="(1,0,0), (0,1,0), (0,0,1)" stress="2.3548840331953218e-08 3.432447995040138e-07 8.178860141530981e-08 3.432447995040138e-07 -5.124269841803474e-07 -1.1506365963809635e-07 8.178860141530981e-08 -1.1506365963809635e-07 3.445952681806051e-08" pbc="F F F"
C        0.33702912      -0.77174133      -0.04309823       0.05934793      -0.12325372      -0.02024416
C        1.65638949      -0.04290728       0.02187447       0.01105250      -0.04287002      -0.01167000
H        2.35003350      -0.54922432       0.69884633       0.04104460       0.06119839       0.04190062
F       -0.60385870       1.49865037       0.24098207      -0.05631368       0.20331101       0.05145208
Cl       0.64567741      -2.57715188      -0.35996877      -0.04654561      -0.02052666      -0.02722021
H       -0.29584934      -0.41186953      -0.84113799       0.04708032       0.01885999       0.04102437
H       -0.21934146      -0.70499016       0.88281525       0.05876325      -0.01217158      -0.02040979
H        1.39973147       0.95909907       0.36539041      -0.15830241      -0.05735159      -0.05796847
H        2.11608002       0.00940065      -0.96829109       0.04387309      -0.02719580       0.00313556
9
Lattice="1.0 0.0 0.0 0.0 1.0 0.0 0.0 0.0 1.0" Properties=species:S:1:pos:R:3:forces:R:3 R1=H R2=H R3=CH3 R4=CH3 leaving_group=Cl nucleophile=Cl rxn=sn2 config=rcc label=H_H_CH3_CH3_Cl_Cl_sn2_rcc conformation=0 reactant_id=H_H_CH3_CH3_Cl_none_-_r product_id=H_H_CH3_CH3_none_Cl_sn2_pc mp2_author_energy=-29302.391748605172 mp2_my_energy=0 hash=59123 address=T id=71 energy=-17370.604873279528 free_energy=-17370.604873279528 cell="(1,0,0), (0,1,0), (0,0,1)" stress="8.133094556621676e-08 3.679782871644014e-08 3.372225480146466e-08 3.679782871644014e-08 -1.7716319335650708e-07 -7.738752273319298e-08 3.372225480146466e-08 -7.738752273319298e-08 -1.8562597353133634e-08" pbc="F F F"
C        0.35065693      -0.79882540      -0.04756371       0.01354476      -0.02637264      -0.00514835
C        1.65620067      -0.05108495       0.01722541       0.00010468      -0.00811689      -0.00536402
H        2.34950602      -0.50538288       0.73117167      -0.00199364       0.04514802       0.03414332
F       -0.58797493       1.55714415       0.26964992       0.01386456       0.05657399       0.03352102
Cl       0.62870697      -2.59146612      -0.38643265      -0.01685658      -0.01373794      -0.02643508
H       -0.28690241      -0.40770969      -0.82739260       0.00904590       0.00444504       0.01263956
H       -0.19673976      -0.72787002       0.88395292       0.02237306      -0.02141905       0.00025890
H        1.33369374       0.94928741       0.31994216      -0.06504570      -0.00875813      -0.04887760
H        2.13874429      -0.01482691      -0.96314066       0.02496296      -0.02776240       0.00526224
9
Lattice="1.0 0.0 0.0 0.0 1.0 0.0 0.0 0.0 1.0" Properties=species:S:1:pos:R:3:forces:R:3 R1=H R2=H R3=CH3 R4=CH3 leaving_group=Cl nucleophile=Cl rxn=sn2 config=rcc label=H_H_CH3_CH3_Cl_Cl_sn2_rcc conformation=0 reactant_id=H_H_CH3_CH3_Cl_none_-_r product_id=H_H_CH3_CH3_none_Cl_sn2_pc mp2_author_energy=-29302.391748605172 mp2_my_energy=0 hash=59123 address=T id=71 energy=-17370.6197264038 free_energy=-17370.6197264038 cell="(1,0,0), (0,1,0), (0,0,1)" stress="5.196583784942984e-08 -1.0830531298790214e-08 1.0830543367915252e-08 -1.0830531298790214e-08 -5.254746355353091e-08 -3.573773809943471e-08 1.0830543367915252e-08 -3.573773809943471e-08 -1.4383966423552018e-08" pbc="F F F"
C        0.35592387      -0.81797836      -0.05193977       0.00171269      -0.00595946      -0.00155174