
                                 *****************
                                 * O   R   C   A *
                                 *****************

                                            #,                                       
                                            ###                                      
                                            ####                                     
                                            #####                                    
                                            ######                                   
                                           ########,                                 
                                     ,,################,,,,,                         
                               ,,#################################,,                 
                          ,,##########################################,,             
                       ,#########################################, ''#####,          
                    ,#############################################,,   '####,        
                  ,##################################################,,,,####,       
                ,###########''''           ''''###############################       
              ,#####''   ,,,,##########,,,,          '''####'''          '####       
            ,##' ,,,,###########################,,,                        '##       
           ' ,,###''''                  '''############,,,                           
         ,,##''                                '''############,,,,        ,,,,,,###''
      ,#''                                            '''#######################'''  
     '                                                          ''''####''''         
             ,#######,   #######,   ,#######,      ##                                
            ,#'     '#,  ##    ##  ,#'     '#,    #''#        ######   ,####,        
            ##       ##  ##   ,#'  ##            #'  '#       #        #'  '#        
            ##       ##  #######   ##           ,######,      #####,   #    #        
            '#,     ,#'  ##    ##  '#,     ,#' ,#      #,         ##   #,  ,#        
             '#######'   ##     ##  '#######'  #'      '#     #####' # '####'        



                  #######################################################
                  #                        -***-                        #
                  #          Department of theory and spectroscopy      #
                  #    Directorship and core code : Frank Neese         #
                  #        Max Planck Institute fuer Kohlenforschung    #
                  #                Kaiser Wilhelm Platz 1               #
                  #                 D-45470 Muelheim/Ruhr               #
                  #                      Germany                        #
                  #                                                     #
                  #                  All rights reserved                #
                  #                        -***-                        #
                  #######################################################


                         Program Version 5.0.3 -  RELEASE  -


 With contributions from (in alphabetic order):
   Daniel Aravena         : Magnetic Suceptibility
   Michael Atanasov       : Ab Initio Ligand Field Theory (pilot matlab implementation)
   Alexander A. Auer      : GIAO ZORA, VPT2 properties, NMR spectrum
   Ute Becker             : Parallelization
   Giovanni Bistoni       : ED, misc. LED, open-shell LED, HFLD
   Martin Brehm           : Molecular dynamics
   Dmytro Bykov           : SCF Hessian
   Vijay G. Chilkuri      : MRCI spin determinant printing, contributions to CSF-ICE
   Dipayan Datta          : RHF DLPNO-CCSD density
   Achintya Kumar Dutta   : EOM-CC, STEOM-CC
   Dmitry Ganyushin       : Spin-Orbit,Spin-Spin,Magnetic field MRCI
   Miquel Garcia          : C-PCM and meta-GGA Hessian, CC/C-PCM, Gaussian charge scheme
   Yang Guo               : DLPNO-NEVPT2, F12-NEVPT2, CIM, IAO-localization
   Andreas Hansen         : Spin unrestricted coupled pair/coupled cluster methods
   Benjamin Helmich-Paris : MC-RPA, TRAH-SCF, COSX integrals
   Lee Huntington         : MR-EOM, pCC
   Robert Izsak           : Overlap fitted RIJCOSX, COSX-SCS-MP3, EOM
   Marcus Kettner         : VPT2
   Christian Kollmar      : KDIIS, OOCD, Brueckner-CCSD(T), CCSD density, CASPT2, CASPT2-K
   Simone Kossmann        : Meta GGA functionals, TD-DFT gradient, OOMP2, MP2 Hessian
   Martin Krupicka        : Initial AUTO-CI
   Lucas Lang             : DCDCAS
   Marvin Lechner         : AUTO-CI (C++ implementation), FIC-MRCC
   Dagmar Lenk            : GEPOL surface, SMD
   Dimitrios Liakos       : Extrapolation schemes; Compound Job, initial MDCI parallelization
   Dimitrios Manganas     : Further ROCIS development; embedding schemes
   Dimitrios Pantazis     : SARC Basis sets
   Anastasios Papadopoulos: AUTO-CI, single reference methods and gradients
   Taras Petrenko         : DFT Hessian,TD-DFT gradient, ASA, ECA, R-Raman, ABS, FL, XAS/XES, NRVS
   Peter Pinski           : DLPNO-MP2, DLPNO-MP2 Gradient
   Christoph Reimann      : Effective Core Potentials
   Marius Retegan         : Local ZFS, SOC
   Christoph Riplinger    : Optimizer, TS searches, QM/MM, DLPNO-CCSD(T), (RO)-DLPNO pert. Triples
   Tobias Risthaus        : Range-separated hybrids, TD-DFT gradient, RPA, STAB
   Michael Roemelt        : Original ROCIS implementation
   Masaaki Saitow         : Open-shell DLPNO-CCSD energy and density
   Barbara Sandhoefer     : DKH picture change effects
   Avijit Sen             : IP-ROCIS
   Kantharuban Sivalingam : CASSCF convergence, NEVPT2, FIC-MRCI
   Bernardo de Souza      : ESD, SOC TD-DFT
   Georgi Stoychev        : AutoAux, RI-MP2 NMR, DLPNO-MP2 response
   Willem Van den Heuvel  : Paramagnetic NMR
   Boris Wezisla          : Elementary symmetry handling
   Frank Wennmohs         : Technical directorship


 We gratefully acknowledge several colleagues who have allowed us to
 interface, adapt or use parts of their codes:
   Stefan Grimme, W. Hujo, H. Kruse, P. Pracht,  : VdW corrections, initial TS optimization,
                  C. Bannwarth, S. Ehlert          DFT functionals, gCP, sTDA/sTD-DF
   Ed Valeev, F. Pavosevic, A. Kumar             : LibInt (2-el integral package), F12 methods
   Garnet Chan, S. Sharma, J. Yang, R. Olivares  : DMRG
   Ulf Ekstrom                                   : XCFun DFT Library
   Mihaly Kallay                                 : mrcc  (arbitrary order and MRCC methods)
   Jiri Pittner, Ondrej Demel                    : Mk-CCSD
   Frank Weinhold                                : gennbo (NPA and NBO analysis)
   Christopher J. Cramer and Donald G. Truhlar   : smd solvation model
   Lars Goerigk                                  : TD-DFT with DH, B97 family of functionals
   V. Asgeirsson, H. Jonsson                     : NEB implementation
   FAccTs GmbH                                   : IRC, NEB, NEB-TS, DLPNO-Multilevel, CI-OPT
                                                   MM, QMMM, 2- and 3-layer-ONIOM, Crystal-QMMM,
                                                   LR-CPCM, SF, NACMEs, symmetry and pop. for TD-DFT,
                                                   nearIR, NL-DFT gradient (VV10), updates on ESD,
                                                   ML-optimized integration grids
   S Lehtola, MJT Oliveira, MAL Marques          : LibXC Library
   Liviu Ungur et al                             : ANISO software


 Your calculation uses the libint2 library for the computation of 2-el integrals
 For citations please refer to: http://libint.valeyev.net

 Your ORCA version has been built with support for libXC version: 5.1.0
 For citations please refer to: https://tddft.org/programs/libxc/

 This ORCA versions uses:
   CBLAS   interface :  Fast vector & matrix operations
   LAPACKE interface :  Fast linear algebra routines
   SCALAPACK package :  Parallel linear algebra routines
   Shared memory     :  Shared parallel matrices
   BLAS/LAPACK       :  OpenBLAS 0.3.15  USE64BITINT DYNAMIC_ARCH NO_AFFINITY Prescott SINGLE_THREADED
        Core in use  :  Prescott
   Copyright (c) 2011-2014, The OpenBLAS Project


================================================================================

----- Orbital basis set information -----
Your calculation utilizes the basis: 6-311G(d)
   H, Li - Ne  : R. Krishnan, J. S. Binkley, R. Seeger and J. A. Pople, J. Chem. Phys. 72, 650 (1980).
   Na - Ar     : A. D. McLean and G. S. Chandler J. Chem. Phys. 72, 5639, (1980).
   K  - Ca     : J.-P. Blaudeau, M. P. McGrath, L. A. Curtiss and L. Radom, J. Chem. Phys. 107, 5016 (1997).
   Ga - Kr     : L. A. Curtiss, M. P. McGrath, J.-P. Blandeau, N. E. Davis, R. C. Binning and L. Radom, J. Chem. Phys. 103, 6104 (1995).
   Pol./Diff.
   H, Li - Cl  : T. Clark, J. Chandrasekhar and P. v. R. Schleyer, J. Comp. Chem. 4, 294 (1983).
   H - Ne      : M. J. Frisch, J. A. Pople and J. S. Binkley, J. Chem. Phys. 80, 3265 (1984).

----- AuxJ basis set information -----
Your calculation utilizes the AutoAux generation procedure.
  G. L. Stoychev, A. A. Auer, F. Neese, J. Chem. Theory Comput. 13, 554 (2017)

----- AuxC basis set information -----
Your calculation utilizes the AutoAux generation procedure.
  G. L. Stoychev, A. A. Auer, F. Neese, J. Chem. Theory Comput. 13, 554 (2017)

----- AuxJK basis set information -----
Your calculation utilizes the AutoAux generation procedure.
  G. L. Stoychev, A. A. Auer, F. Neese, J. Chem. Theory Comput. 13, 554 (2017)

================================================================================
                                        WARNINGS
                       Please study these warnings very carefully!
================================================================================

WARNING: Old DensityContainer found on disk!
         Will remove this file - 
         If you want to keep old densities, please start your calculation with a different basename. 


WARNING: Post HF methods need fully converged wavefunctions
  ===> : Setting SCFConvForced true
         You can overwrite this default with %scf ConvForced false 


INFO   : the flag for use of the SHARK integral package has been found!

================================================================================
                                       INPUT FILE
================================================================================
NAME = orca.inp
|  1> ! RI-MP2 6-311G(d) autoaux nofrozencore tightscf engrad 
|  2> %pal nprocs 1 end 
|  3> *xyz -1 1 
|  4> C   0.09637425398324018 -0.07231111935583726 0.056285825603134165
|  5> C   1.601019966194606 0.12753406808829704 0.037575873444207535
|  6> H   2.1018025768870108 -0.6847570999838415 0.5615999748380814
|  7> F   -0.5353520564437777 1.1943549279390664 0.12070874684759554
|  8> Cl   0.7968941161456123 -3.165648934239845 -0.4182175070254893
|  9> H   -0.26846406896536124 -0.5768046758194606 -0.8331890768360785
| 10> H   -0.22654479722352217 -0.6423308389091418 0.9256085580211864
| 11> H   1.823758566826155 1.0799514323540833 0.5267760153174963
| 12> H   1.9964029525960365 0.14927782992668037 -0.9797359602101336
| 13> *
| 14> 
| 15>                          ****END OF INPUT****
================================================================================

                     *******************************
                     * Energy+Gradient Calculation *
                     *******************************

---------------------------------
CARTESIAN COORDINATES (ANGSTROEM)
---------------------------------
  C      0.096374   -0.072311    0.056286
  C      1.601020    0.127534    0.037576
  H      2.101803   -0.684757    0.561600
  F     -0.535352    1.194355    0.120709
  Cl     0.796894   -3.165649   -0.418218
  H     -0.268464   -0.576805   -0.833189
  H     -0.226545   -0.642331    0.925609
  H      1.823759    1.079951    0.526776
  H      1.996403    0.149278   -0.979736

----------------------------
CARTESIAN COORDINATES (A.U.)
----------------------------
  NO LB      ZA    FRAG     MASS         X           Y           Z
   0 C     6.0000    0    12.011    0.182121   -0.136648    0.106365
   1 C     6.0000    0    12.011    3.025489    0.241004    0.071008
   2 H     1.0000    0     1.008    3.971831   -1.294003    1.061270
   3 F     9.0000    0    18.998   -1.011669    2.257004    0.228106
   4 Cl   17.0000    0    35.453    1.505912   -5.982210   -0.790317
   5 H     1.0000    0     1.008   -0.507324   -1.090003   -1.574499
   6 H     1.0000    0     1.008   -0.428108   -1.213829    1.749147
   7 H     1.0000    0     1.008    3.446404    2.040812    0.995462
   8 H     1.0000    0     1.008    3.772655    0.282094   -1.851433

--------------------------------
INTERNAL COORDINATES (ANGSTROEM)
--------------------------------
 C      0   0   0     0.000000000000     0.00000000     0.00000000
 C      1   0   0     1.517974598118     0.00000000     0.00000000
 H      2   1   0     1.088669565911   110.59701995     0.00000000
 F      1   2   3     1.416923187557   108.95332707   146.22966508
 Cl     3   2   1     2.969453263138   105.21267528    45.43709583
 H      1   2   3     1.085719278854   112.59156781   265.54910368
 H      1   2   3     1.088540861617   111.89039120    27.58860739
 H      2   1   3     1.093630695790   108.12072458   239.59926776
 H      2   1   3     1.091661057292   111.90772790   119.53167463

---------------------------
INTERNAL COORDINATES (A.U.)
---------------------------
 C      0   0   0     0.000000000000     0.00000000     0.00000000
 C      1   0   0     2.868556268692     0.00000000     0.00000000
 H      2   1   0     2.057287329907   110.59701995     0.00000000
 F      1   2   3     2.677596777286   108.95332707   146.22966508
 Cl     3   2   1     5.611453434809   105.21267528    45.43709583
 H      1   2   3     2.051712095352   112.59156781   265.54910368
 H      1   2   3     2.057044114040   111.89039120    27.58860739
 H      2   1   3     2.066662506694   108.12072458   239.59926776
 H      2   1   3     2.062940429349   111.90772790   119.53167463

---------------------
BASIS SET INFORMATION
---------------------
There are 4 groups of distinct atoms

 Group   1 Type C   : 11s5p1d contracted to 4s3p1d pattern {6311/311/1}
 Group   2 Type H   : 5s contracted to 3s pattern {311}
 Group   3 Type F   : 11s5p1d contracted to 4s3p1d pattern {6311/311/1}
 Group   4 Type Cl  : 13s10p1d contracted to 6s5p1d pattern {631111/52111/1}

Atom   0C    basis set group =>   1
Atom   1C    basis set group =>   1
Atom   2H    basis set group =>   2
Atom   3F    basis set group =>   3
Atom   4Cl   basis set group =>   4
Atom   5H    basis set group =>   2
Atom   6H    basis set group =>   2
Atom   7H    basis set group =>   2
Atom   8H    basis set group =>   2
---------------------------------
AUXILIARY/J BASIS SET INFORMATION
---------------------------------
There are 4 groups of distinct atoms

 Group   1 Type C   : 14s12p11d3f contracted to 14s12p11d3f pattern {11111111111111/111111111111/11111111111/111}
 Group   2 Type H   : 11s2p contracted to 11s2p pattern {11111111111/11}
 Group   3 Type F   : 14s12p10d3f contracted to 14s12p10d3f pattern {11111111111111/111111111111/1111111111/111}
 Group   4 Type Cl  : 20s17p16d5f contracted to 20s17p16d5f pattern {11111111111111111111/11111111111111111/1111111111111111/11111}

Atom   0C    basis set group =>   1
Atom   1C    basis set group =>   1
Atom   2H    basis set group =>   2
Atom   3F    basis set group =>   3
Atom   4Cl   basis set group =>   4
Atom   5H    basis set group =>   2
Atom   6H    basis set group =>   2
Atom   7H    basis set group =>   2
Atom   8H    basis set group =>   2
---------------------------------
AUXILIARY/C BASIS SET INFORMATION
---------------------------------
There are 4 groups of distinct atoms

 Group   1 Type C   : 14s12p11d3f contracted to 14s12p11d3f pattern {11111111111111/111111111111/11111111111/111}
 Group   2 Type H   : 11s2p contracted to 11s2p pattern {11111111111/11}
 Group   3 Type F   : 14s12p10d3f contracted to 14s12p10d3f pattern {11111111111111/111111111111/1111111111/111}
 Group   4 Type Cl  : 20s17p16d5f contracted to 20s17p16d5f pattern {11111111111111111111/11111111111111111/1111111111111111/11111}

Atom   0C    basis set group =>   1
Atom   1C    basis set group =>   1
Atom   2H    basis set group =>   2
Atom   3F    basis set group =>   3
Atom   4Cl   basis set group =>   4
Atom   5H    basis set group =>   2
Atom   6H    basis set group =>   2
Atom   7H    basis set group =>   2
Atom   8H    basis set group =>   2
----------------------------------
AUXILIARY/JK BASIS SET INFORMATION
----------------------------------
There are 4 groups of distinct atoms

 Group   1 Type C   : 14s12p11d3f contracted to 14s12p11d3f pattern {11111111111111/111111111111/11111111111/111}
 Group   2 Type H   : 11s2p contracted to 11s2p pattern {11111111111/11}
 Group   3 Type F   : 14s12p10d3f contracted to 14s12p10d3f pattern {11111111111111/111111111111/1111111111/111}
 Group   4 Type Cl  : 20s17p16d5f contracted to 20s17p16d5f pattern {11111111111111111111/11111111111111111/1111111111111111/11111}

Atom   0C    basis set group =>   1
Atom   1C    basis set group =>   1
Atom   2H    basis set group =>   2
Atom   3F    basis set group =>   3
Atom   4Cl   basis set group =>   4
Atom   5H    basis set group =>   2
Atom   6H    basis set group =>   2
Atom   7H    basis set group =>   2
Atom   8H    basis set group =>   2

Checking for AutoStart:
The File: orca.gbw exists
Trying to determine its content:
     ... Fine, the file contains calculation information
     ... Fine, the calculation information was read
     ... Fine, the file contains a basis set
     ... Fine, the basis set was read
     ... Fine, the file contains a geometry
     ... Fine, the geometry was read
     ... Fine, the file contains a set of orbitals
     ... Fine, the orbitals can be read
     => possible old guess file was deleted
     => GBW file was renamed to GES file
     => GES file is set as startup file
     => Guess is set to MORead
     ... now leaving AutoStart

------------------------------------------------------------------------------
                           ORCA GTO INTEGRAL CALCULATION
------------------------------------------------------------------------------
------------------------------------------------------------------------------
                   ___                                                        
                  /   \      - P O W E R E D   B Y -                         
                 /     \                                                     
                 |  |  |   _    _      __       _____    __    __             
                 |  |  |  | |  | |    /  \     |  _  \  |  |  /  |          
                  \  \/   | |  | |   /    \    | | | |  |  | /  /          
                 / \  \   | |__| |  /  /\  \   | |_| |  |  |/  /          
                |  |  |   |  __  | /  /__\  \  |    /   |      \           
                |  |  |   | |  | | |   __   |  |    \   |  |\   \          
                \     /   | |  | | |  |  |  |  | |\  \  |  | \   \       
                 \___/    |_|  |_| |__|  |__|  |_| \__\ |__|  \__/        
                                                                              
                      - O R C A' S   B I G   F R I E N D -                    
                                      &                                       
                       - I N T E G R A L  F E E D E R -                       
                                                                              
 v1 FN, 2020, v2 2021                                                         
------------------------------------------------------------------------------


Reading SHARK input file orca.SHARKINP.tmp ... ok
----------------------
SHARK INTEGRAL PACKAGE
----------------------

Number of atoms                             ...      9
Number of basis functions                   ...     95
Number of shells                            ...     51
Maximum angular momentum                    ...      2
Integral batch strategy                     ... SHARK/LIBINT Hybrid
RI-J (if used) integral strategy            ... SPLIT-RIJ (Revised 2003 algorithm where possible)
Printlevel                                  ...      1
Contraction scheme used                     ... SEGMENTED contraction
Coulomb Range Separation                    ... NOT USED
Exchange Range Separation                   ... NOT USED
Finite Nucleus Model                        ... NOT USED
Auxiliary Coulomb fitting basis             ... AVAILABLE
   # of basis functions in Aux-J            ...    644
   # of shells in Aux-J                     ...    242
   Maximum angular momentum in Aux-J        ...      3
Auxiliary J/K fitting basis                 ... AVAILABLE
   # of basis functions in Aux-JK           ...    644
   # of shells in Aux-JK                    ...    242
   Maximum angular momentum in Aux-JK       ...      3
Auxiliary Correlation fitting basis         ... AVAILABLE
   # of basis functions in Aux-C            ...    644
   # of shells in Aux-C                     ...    242
   Maximum angular momentum in Aux-C        ...      3
Auxiliary 'external' fitting basis          ... NOT available
Integral threshold                          ...     2.500000e-11
Primitive cut-off                           ...     2.500000e-12
Primitive pair pre-selection threshold      ...     2.500000e-12

Calculating pre-screening integrals         ... done (  0.0 sec) Dimension = 51
Organizing shell pair data                  ... done (  0.0 sec)
Shell pair information
Total number of shell pairs                 ...      1326
Shell pairs after pre-screening             ...      1197
Total number of primitive shell pairs       ...      5157
Primitive shell pairs kept                  ...      3472
          la=0 lb=0:    504 shell pairs
          la=1 lb=0:    415 shell pairs
          la=1 lb=1:     95 shell pairs
          la=2 lb=0:    123 shell pairs
          la=2 lb=1:     51 shell pairs
          la=2 lb=2:      9 shell pairs

Calculating one electron integrals          ... done (  0.0 sec)
Calculating RI/J V-Matrix + Cholesky decomp.... done (  0.0 sec)
Calculating RI/JK V-Matrix + Cholesky decomp... done (  0.0 sec)
Calculating RI/C V-Matrix + Cholesky decomp.... done (  0.0 sec)
Calculating Nuclear repulsion               ... done (  0.0 sec) ENN=    142.671948705770 Eh

SHARK setup successfully completed in   0.2 seconds

Maximum memory used throughout the entire GTOINT-calculation: 9.9 MB
-------------------------------------------------------------------------------
                                 ORCA SCF
-------------------------------------------------------------------------------

------------
SCF SETTINGS
------------
Hamiltonian:
 Ab initio Hamiltonian  Method          .... Hartree-Fock(GTOs)


General Settings:
 Integral files         IntName         .... orca
 Hartree-Fock type      HFTyp           .... RHF
 Total Charge           Charge          ....   -1
 Multiplicity           Mult            ....    1
 Number of Electrons    NEL             ....   44
 Basis Dimension        Dim             ....   95
 Nuclear Repulsion      ENuc            ....    142.6719487058 Eh

Convergence Acceleration:
 DIIS                   CNVDIIS         .... on
   Start iteration      DIISMaxIt       ....    12
   Startup error        DIISStart       ....  0.200000
   # of expansion vecs  DIISMaxEq       ....     5
   Bias factor          DIISBfac        ....   1.050
   Max. coefficient     DIISMaxC        ....  10.000
 Trust-Rad. Augm. Hess. CNVTRAH         .... auto
   Auto Start mean grad. ratio tolernc. ....  1.125000
   Auto Start start iteration           ....     1
   Auto Start num. interpolation iter.  ....    10
   Max. Number of Micro iterations      ....    16
   Max. Number of Macro iterations      .... Maxiter - #DIIS iter
   Number of Davidson start vectors     ....     2
   Converg. threshold I  (grad. norm)   ....   1.000e-05
   Converg. threshold II (energy diff.) ....   1.000e-08
   Grad. Scal. Fac. for Micro threshold ....   0.100
   Minimum threshold for Micro iter.    ....   0.010
   NR start threshold (gradient norm)   ....   0.001
   Initial trust radius                 ....   0.400
   Minimum AH scaling param. (alpha)    ....   1.000
   Maximum AH scaling param. (alpha)    .... 1000.000
   Orbital update algorithm             .... Taylor
   White noise on init. David. guess    .... on
   Maximum white noise                  ....   0.010
   Quad. conv. algorithm                .... NR
 SOSCF                  CNVSOSCF        .... on
   Start iteration      SOSCFMaxIt      ....   150
   Startup grad/error   SOSCFStart      ....  0.003300
 Level Shifting         CNVShift        .... on
   Level shift para.    LevelShift      ....    0.2500
   Turn off err/grad.   ShiftErr        ....    0.0010
 Zerner damping         CNVZerner       .... off
 Static damping         CNVDamp         .... on
   Fraction old density DampFac         ....    0.7000
   Max. Damping (<1)    DampMax         ....    0.9800
   Min. Damping (>=0)   DampMin         ....    0.0000
   Turn off err/grad.   DampErr         ....    0.1000
 Fernandez-Rico         CNVRico         .... off

SCF Procedure:
 Maximum # iterations   MaxIter         ....   125
 SCF integral mode      SCFMode         .... Direct
   Integral package                     .... SHARK and LIBINT hybrid scheme
 Reset frequency        DirectResetFreq ....    20
 Integral Threshold     Thresh          ....  2.500e-11 Eh
 Primitive CutOff       TCut            ....  2.500e-12 Eh

Convergence Tolerance:
 Convergence Check Mode ConvCheckMode   .... Total+1el-Energy
 Convergence forced     ConvForced      .... 1
 Energy Change          TolE            ....  1.000e-08 Eh
 1-El. energy change                    ....  1.000e-05 Eh
 Orbital Gradient       TolG            ....  1.000e-05
 Orbital Rotation angle TolX            ....  1.000e-05
 DIIS Error             TolErr          ....  5.000e-07


Diagonalization of the overlap matrix:
Smallest eigenvalue                        ... 4.066e-03
Time for diagonalization                   ...    0.002 sec
Threshold for overlap eigenvalues          ... 1.000e-08
Number of eigenvalues below threshold      ... 0
Time for construction of square roots      ...    0.005 sec
Total time needed                          ...    0.007 sec

---------------------
INITIAL GUESS: MOREAD
---------------------
Guess MOs are being read from file: orca.ges
Input geometry compatible with but different from current geometry
Input basis set matches current basis set (good)
MOs were renormalized
MOs were reorthogonalized (Cholesky)
                      ------------------
                      INITIAL GUESS DONE (   0.0 sec)
                      ------------------
--------------
SCF ITERATIONS
--------------
ITER       Energy         Delta-E        Max-DP      RMS-DP      [F,P]     Damp
               ***  Starting incremental Fock matrix formation  ***
                      *** Initiating the SOSCF procedure ***
                      *** Re-Reading the Fockian *** 
                      *** Removing any level shift *** 
ITER      Energy       Delta-E        Grad      Rot      Max-DP    RMS-DP
  0   -637.69238553 -637.6923855285  0.000630  0.000630  0.000320  0.000021
               *** Restarting incremental Fock matrix formation ***
  1   -637.69239248  -0.0000069493  0.000331  0.000326  0.000187  0.000013
  2   -637.69239397  -0.0000014951  0.000131  0.000207  0.000140  0.000008
  3   -637.69239422  -0.0000002456  0.000007  0.000010  0.000013  0.000001
                  ***Gradient check signals convergence***
              ***Rediagonalizing the Fockian in SOSCF/NRSCF***

               *****************************************************
               *                     SUCCESS                       *
               *           SCF CONVERGED AFTER   4 CYCLES          *
               *****************************************************


----------------
TOTAL SCF ENERGY
----------------

Total Energy       :         -637.69239422 Eh          -17352.49223 eV

Components:
Nuclear Repulsion  :          142.67194871 Eh            3882.30110 eV
Electronic Energy  :         -780.36434293 Eh          -21234.79333 eV
One Electron Energy:        -1173.50832911 Eh          -31932.78507 eV
Two Electron Energy:          393.14398618 Eh           10697.99174 eV

Virial components:
Potential Energy   :        -1275.44107525 Eh          -34706.51610 eV
Kinetic Energy     :          637.74868103 Eh           17354.02387 eV
Virial Ratio       :            1.99991174


---------------
SCF CONVERGENCE
---------------

  Last Energy change         ...   -2.4006e-09  Tolerance :   1.0000e-08
  Last MAX-Density change    ...    5.1453e-06  Tolerance :   1.0000e-07
  Last RMS-Density change    ...    3.2794e-07  Tolerance :   5.0000e-09
  Last Orbital Gradient      ...    2.2870e-06  Tolerance :   1.0000e-05
  Last Orbital Rotation      ...    4.0215e-06  Tolerance :   1.0000e-05

             **** THE GBW FILE WAS UPDATED (orca.gbw) ****
             **** DENSITY orca.scfp WAS UPDATED ****
             **** ENERGY FILE WAS UPDATED (orca.en.tmp) ****
             **** THE GBW FILE WAS UPDATED (orca.gbw) ****
             **** DENSITY orca.scfp WAS UPDATED ****
----------------
ORBITAL ENERGIES
----------------

  NO   OCC          E(Eh)            E(eV) 
   0   2.0000    -104.512972     -2843.9426 
   1   2.0000     -26.115440      -710.6373 
   2   2.0000     -11.150480      -303.4200 
   3   2.0000     -11.078761      -301.4684 
   4   2.0000     -10.238674      -278.6085 
   5   2.0000      -7.705566      -209.6791 
   6   2.0000      -7.705536      -209.6783 
   7   2.0000      -7.705517      -209.6778 
   8   2.0000      -1.426963       -38.8296 
   9   2.0000      -0.881619       -23.9901 
  10   2.0000      -0.749009       -20.3816 
  11   2.0000      -0.712868       -19.3981 
  12   2.0000      -0.547897       -14.9090 
  13   2.0000      -0.539633       -14.6842 
  14   2.0000      -0.498744       -13.5715 
  15   2.0000      -0.434246       -11.8164 
  16   2.0000      -0.403340       -10.9754 
  17   2.0000      -0.361696        -9.8423 
  18   2.0000      -0.344544        -9.3755 
  19   2.0000      -0.166442        -4.5291 
  20   2.0000      -0.165198        -4.4953 
  21   2.0000      -0.164990        -4.4896 
  22   0.0000       0.305154         8.3037 
  23   0.0000       0.335175         9.1206 
  24   0.0000       0.345574         9.4035 
  25   0.0000       0.378319        10.2946 
  26   0.0000       0.410170        11.1613 
  27   0.0000       0.468031        12.7358 
  28   0.0000       0.520897        14.1743 
  29   0.0000       0.580500        15.7962 
  30   0.0000       0.619836        16.8666 
  31   0.0000       0.643724        17.5166 
  32   0.0000       0.689371        18.7587 
  33   0.0000       0.701308        19.0836 
  34   0.0000       0.713200        19.4072 
  35   0.0000       0.745749        20.2928 
  36   0.0000       0.840932        22.8829 
  37   0.0000       0.878461        23.9041 
  38   0.0000       0.912139        24.8206 
  39   0.0000       0.932283        25.3687 
  40   0.0000       0.943687        25.6790 
  41   0.0000       0.964810        26.2538 
  42   0.0000       0.980036        26.6681 
  43   0.0000       1.083816        29.4921 
  44   0.0000       1.211652        32.9707 
  45   0.0000       1.228214        33.4214 
  46   0.0000       1.375126        37.4191 
  47   0.0000       1.413449        38.4619 
  48   0.0000       1.433757        39.0145 
  49   0.0000       1.457016        39.6474 
  50   0.0000       1.458916        39.6991 
  51   0.0000       1.463095        39.8128 
  52   0.0000       1.474096        40.1122 
  53   0.0000       1.519786        41.3555 
  54   0.0000       1.634569        44.4789 
  55   0.0000       1.657087        45.0916 
  56   0.0000       1.844534        50.1923 
  57   0.0000       1.930735        52.5380 
  58   0.0000       1.977508        53.8107 
  59   0.0000       1.994135        54.2632 
  60   0.0000       2.105060        57.2816 
  61   0.0000       2.162008        58.8312 
  62   0.0000       2.208954        60.1087 
  63   0.0000       2.257020        61.4166 
  64   0.0000       2.401937        65.3600 
  65   0.0000       2.774831        75.5070 
  66   0.0000       2.779648        75.6381 
  67   0.0000       2.790396        75.9305 
  68   0.0000       2.843741        77.3821 
  69   0.0000       2.858948        77.7959 
  70   0.0000       2.881659        78.4139 
  71   0.0000       2.949723        80.2660 
  72   0.0000       3.017407        82.1078 
  73   0.0000       3.410050        92.7922 
  74   0.0000       3.494944        95.1023 
  75   0.0000       3.571975        97.1984 
  76   0.0000       3.692368       100.4744 
  77   0.0000       3.749155       102.0197 
  78   0.0000       4.271071       116.2218 
  79   0.0000       4.404931       119.8643 
  80   0.0000       4.416930       120.1908 
  81   0.0000       4.558192       124.0347 
  82   0.0000       4.631022       126.0165 
  83   0.0000       5.283009       143.7580 
  84   0.0000       6.917511       188.2350 
  85   0.0000       6.924855       188.4349 
  86   0.0000       7.161454       194.8731 
  87   0.0000      10.394127       282.8386 
  88   0.0000      24.652042       670.8162 
  89   0.0000      24.926119       678.2742 
  90   0.0000      26.567321       722.9336 
  91   0.0000      26.584247       723.3941 
  92   0.0000      26.685854       726.1590 
  93   0.0000      68.890820      1874.6145 
  94   0.0000     219.196406      5964.6375 

                    ********************************
                    * MULLIKEN POPULATION ANALYSIS *
                    ********************************

-----------------------
MULLIKEN ATOMIC CHARGES
-----------------------
   0 C :    0.001931
   1 C :   -0.640192
   2 H :    0.249605
   3 F :   -0.430990
   4 Cl:   -0.974219
   5 H :    0.231620
   6 H :    0.203115
   7 H :    0.167911
   8 H :    0.191219
Sum of atomic charges:   -1.0000000

--------------------------------
MULLIKEN REDUCED ORBITAL CHARGES
--------------------------------
  0 C s       :     3.202255  s :     3.202255
      pz      :     1.161420  p :     2.673227
      px      :     0.894473
      py      :     0.617334
      dz2     :     0.020903  d :     0.122587
      dxz     :     0.013794
      dyz     :     0.028448
      dx2y2   :     0.029844
      dxy     :     0.029598
  1 C s       :     3.360021  s :     3.360021
      pz      :     1.126482  p :     3.211330
      px      :     0.981373
      py      :     1.103474
      dz2     :     0.014209  d :     0.068842
      dxz     :     0.013536
      dyz     :     0.013496
      dx2y2   :     0.018171
      dxy     :     0.009430
  2 H s       :     0.750395  s :     0.750395
  3 F s       :     3.967930  s :     3.967930
      pz      :     1.956083  p :     5.459042
      px      :     1.879597
      py      :     1.623362
      dz2     :     0.000647  d :     0.004019
      dxz     :     0.000130
      dyz     :     0.000598
      dx2y2   :     0.001144
      dxy     :     0.001499
  4 Cls       :     5.994351  s :     5.994351
      pz      :     3.994645  p :    11.979729
      px      :     3.994274
      py      :     3.990810
      dz2     :     0.000018  d :     0.000140
      dxz     :     0.000006
      dyz     :     0.000032
      dx2y2   :     0.000035
      dxy     :     0.000049
  5 H s       :     0.768380  s :     0.768380
  6 H s       :     0.796885  s :     0.796885
  7 H s       :     0.832089  s :     0.832089
  8 H s       :     0.808781  s :     0.808781


                     *******************************
                     * LOEWDIN POPULATION ANALYSIS *
                     *******************************

----------------------
LOEWDIN ATOMIC CHARGES
----------------------
   0 C :   -0.048960
   1 C :   -0.297648
   2 H :    0.117514
   3 F :   -0.201249
   4 Cl:   -0.936335
   5 H :    0.099385
   6 H :    0.091380
   7 H :    0.080743
   8 H :    0.095168

-------------------------------
LOEWDIN REDUCED ORBITAL CHARGES
-------------------------------
  0 C s       :     2.882860  s :     2.882860
      pz      :     1.134187  p :     2.935226
      px      :     1.024945
      py      :     0.776094
      dz2     :     0.036487  d :     0.230874
      dxz     :     0.022799
      dyz     :     0.049710
      dx2y2   :     0.062463
      dxy     :     0.059416
  1 C s       :     2.897568  s :     2.897568
      pz      :     1.110704  p :     3.295086
      px      :     1.081451
      py      :     1.102930
      dz2     :     0.019719  d :     0.104994
      dxz     :     0.023187
      dyz     :     0.016789
      dx2y2   :     0.029687
      dxy     :     0.015613
  2 H s       :     0.882486  s :     0.882486
  3 F s       :     3.739767  s :     3.739767
      pz      :     1.947304  p :     5.456424
      px      :     1.865872
      py      :     1.643248
      dz2     :     0.000797  d :     0.005058
      dxz     :     0.000150
      dyz     :     0.000807
      dx2y2   :     0.001448
      dxy     :     0.001856
  4 Cls       :     5.983140  s :     5.983140
      pz      :     3.993563  p :    11.953082
      px      :     3.990701
      py      :     3.968818
      dz2     :     0.000012  d :     0.000113
      dxz     :     0.000007
      dyz     :     0.000027
      dx2y2   :     0.000021
      dxy     :     0.000046
  5 H s       :     0.900615  s :     0.900615
  6 H s       :     0.908620  s :     0.908620
  7 H s       :     0.919257  s :     0.919257
  8 H s       :     0.904832  s :     0.904832


                      *****************************
                      * MAYER POPULATION ANALYSIS *
                      *****************************

  NA   - Mulliken gross atomic population
  ZA   - Total nuclear charge
  QA   - Mulliken gross atomic charge
  VA   - Mayer's total valence
  BVA  - Mayer's bonded valence
  FA   - Mayer's free valence

  ATOM       NA         ZA         QA         VA         BVA        FA
  0 C      5.9981     6.0000     0.0019     3.5525     3.5525    -0.0000
  1 C      6.6402     6.0000    -0.6402     3.7334     3.7334     0.0000
  2 H      0.7504     1.0000     0.2496     0.9037     0.9037    -0.0000
  3 F      9.4310     9.0000    -0.4310     0.7694     0.7694    -0.0000
  4 Cl    17.9742    17.0000    -0.9742     0.0276     0.0276     0.0000
  5 H      0.7684     1.0000     0.2316     0.9141     0.9141     0.0000
  6 H      0.7969     1.0000     0.2031     0.9228     0.9228    -0.0000
  7 H      0.8321     1.0000     0.1679     0.9246     0.9246    -0.0000
  8 H      0.8088     1.0000     0.1912     0.9195     0.9195    -0.0000

  Mayer bond orders larger than 0.100000
B(  0-C ,  1-C ) :   0.9503 B(  0-C ,  3-F ) :   0.7538 B(  0-C ,  5-H ) :   0.9363 
B(  0-C ,  6-H ) :   0.9490 B(  1-C ,  2-H ) :   0.9272 B(  1-C ,  7-H ) :   0.9499 
B(  1-C ,  8-H ) :   0.9552 

-------
TIMINGS
-------

Total SCF time: 0 days 0 hours 0 min 1 sec 

Total time                  ....       1.778 sec
Sum of individual times     ....       1.613 sec  ( 90.7%)

Fock matrix formation       ....       1.585 sec  ( 89.2%)
Diagonalization             ....       0.002 sec  (  0.1%)
Density matrix formation    ....       0.000 sec  (  0.0%)
Population analysis         ....       0.018 sec  (  1.0%)
Initial guess               ....       0.003 sec  (  0.1%)
Orbital Transformation      ....       0.000 sec  (  0.0%)
Orbital Orthonormalization  ....       0.001 sec  (  0.1%)
DIIS solution               ....       0.000 sec  (  0.0%)
SOSCF solution              ....       0.005 sec  (  0.3%)

Maximum memory used throughout the entire SCF-calculation: 231.7 MB

------------------------------------------------------------------------------
                                ORCA  MP2 
------------------------------------------------------------------------------


----------------------
RI-MP2 ENERGY+GRADIENT
----------------------
Dimension of the basis                    ...   95
Memory devoted to MP2                     ...  256 MB   
Data format for buffers                   ... DOUBLE
Compression type for matrix containers    ... UNCOMPRESSED
Overall scaling of the MP2 energy         ...   1.000e+00
Calculating two index integrals           ... done (    0.003 sec)
Cholesky decomposition of the V-matrix    ... done
Cholesky decomposition of V**-1           ... done (    0.048 sec)

-----------------
RI-TRANSFORMATION (AUX index driven)
-----------------

Dimension of the orbital-basis         ... 95
Dimension of the aux-basis             ... 644
Transformation of internal MOs         ...    0-  21
Transformation of internal/external MOs...    0-  21 to   22-  94
Number Format for Storage              ... Double (8 Byte)
Integral mode                          ... Direct

First Phase: integral generation and transformation of MO indices
  Aux angular momentum 0               ... done (    0.068 sec)
  Aux angular momentum 1               ... done (    0.046 sec)
  Aux angular momentum 2               ... done (    0.052 sec)
  Aux angular momentum 3               ... done (    0.021 sec)
Closing buffer VIJ ( 0.00 GB; CompressionRatio= 0.99)
Closing buffer VIA ( 0.01 GB; CompressionRatio= 1.00)
  Phase 1 completed in     0.302 sec
Second Phase: sorting and transformation of aux index

IJ-Transformation
Memory available                       ... 209 MB 
Max. # MO pairs treated in a batch     ... 22    
# of internal orbitals                 ... 22
# batches for internal orbitals        ... 1
Closing buffer IJV ( 0.00 GB; CompressionRatio= 1.00)
(ij|v) transformation done in     0.063 sec

IA-Transformation
Memory available                       ... 209 MB 
Max. # MO pairs treated in a batch     ... 22    
# of internal orbitals                 ... 22
# batches for internal orbitals        ... 1
Closing buffer IAV ( 0.01 GB; CompressionRatio= 1.00)
(ia|v) transformation done in     0.171 sec

  Phase 2 completed in     0.240 sec
RI-Integral transformation completed in     0.548 sec
Opening buffers                              ... done

Starting loop over batches of integrals:

Operator 0  - window                       ... (  0- 21)x( 22- 94)
Operator 0  - Memory available             ...   256 MB
Operator 0  - Memory needed per MO         ...   0.7 MB
Operator 0  - Number of orbitals per batch ... 22
Operator 0  - Number of batches            ... 1

OPERATOR  0   PASS   0:  MOs     0 ...   21
  Reading integrals       ... ok
  Internal MO   2
  Internal MO   5
  Internal MO   8
  Internal MO  11
  Internal MO  14
  Internal MO  17
  Internal MO  20
Time spent in pair loops =     2.226 sec

-----------------------------------------------
 RI-MP2 CORRELATION ENERGY:     -0.724328344 Eh
-----------------------------------------------


---------------------
MP2 DENSITY FORMATION
---------------------

Completing the external part of the density      ... done
Storing the unrelaxed density                    ... done

Calculating G(D)                                 ... done
Completing the Lagrangian                        ... done
Solving the Z-vector equations                   ... 

------------------------------------------------------------------------------
                           ORCA CP-SCF CALCULATION
------------------------------------------------------------------------------

Input orbitals are from        ... orca.gbw
Input Perturbation             ... orca.pin.tmp
Wavefunction output            ... orca.pout.tmp
Perturbation mode              ... Real perturbation (singlet)
Solver                         ... POPLE
Max. number of iterations      ... 128
Convergence tolerance          ... 1.000e-04
Integral handling              ... Direct
Number of perturbations        ... 1
Number of operators            ... 1
Orbital ranges used for CP-SCF:
 Operator 0:  Orbitals   0... 21  to  22... 94
Variables per perturbation     ... 1606
Memory available               ... 971.0 MB
Memory needed per perturbation ...   3.4 MB
Perturbations treated per batch... 1
Number of batches              ... 1
     CP-SCF ITERATION   0:   4.9122e-02 (   0.4 sec)
     CP-SCF ITERATION   1:   8.9785e-03 (   0.5 sec)
     CP-SCF ITERATION   2:   3.6898e-03 (   0.5 sec)
     CP-SCF ITERATION   3:   7.4921e-04 (   0.5 sec)
     CP-SCF ITERATION   4:   1.6530e-04 (   0.5 sec)
     CP-SCF ITERATION   5:   4.7848e-05 (   0.5 sec)
                    *** THE CP-SCF HAS CONVERGED ***
done
Finalizing the relaxed density                   ... done
Transforming P to the AO basis                   ... done
Storing the relaxed density                      ... done

------------------------------------
ENERGY WEIGHTED DENSITY FINALIZATION
------------------------------------

Gathering the parts of the W-matrix              ... done
Forming the Z-density                            ... done
Transforming Z to the AO basis                   ... done
Calculating G(Z)                                 ... done
Finalizing the W-matrix                          ... done
Transforming W to the AO basis and storing       ... done

----------------------------------
MP2 DERIVATIVE INTEGRAL GENERATION
----------------------------------


Input Correlated Electron Density   ... orca.pmp2re
Input Energy Weighted Density       ... orca.wmp2.tmp
Input SCF Electron Density          ... orca.scfp

One-Electron Terms    ...
                        ... One-Electron Terms done
Prescreening matrices              ... done

                *********************************************
                * UNRELAXED MP2 DENSITY POPULATION ANALYSIS *
                *********************************************

------------------------------------------------------------------------------
                           ORCA POPULATION ANALYSIS
------------------------------------------------------------------------------
Input electron density              ... orca.pmp2ur
BaseName (.gbw .S,...)              ... orca

                    ********************************
                    * MULLIKEN POPULATION ANALYSIS *
                    ********************************

-----------------------
MULLIKEN ATOMIC CHARGES
-----------------------
   0 C :   -0.015206
   1 C :   -0.647999
   2 H :    0.251329
   3 F :   -0.418628
   4 Cl:   -0.971857
   5 H :    0.233162
   6 H :    0.205026
   7 H :    0.170319
   8 H :    0.193854
Sum of atomic charges:   -1.0000000

--------------------------------
MULLIKEN REDUCED ORBITAL CHARGES
--------------------------------
  0 C s       :     3.200019  s :     3.200019
      pz      :     1.158751  p :     2.676751
      px      :     0.893206
      py      :     0.624794
      dz2     :     0.024026  d :     0.138437
      dxz     :     0.017770
      dyz     :     0.031620
      dx2y2   :     0.032520
      dxy     :     0.032502
  1 C s       :     3.356693  s :     3.356693
      pz      :     1.123801  p :     3.202755
      px      :     0.978102
      py      :     1.100852
      dz2     :     0.017988  d :     0.088551
      dxz     :     0.017684
      dyz     :     0.017403
      dx2y2   :     0.021714
      dxy     :     0.013762
  2 H s       :     0.748671  s :     0.748671
  3 F s       :     3.966008  s :     3.966008
      pz      :     1.949360  p :     5.434359
      px      :     1.871930
      py      :     1.613070
      dz2     :     0.003464  d :     0.018261
      dxz     :     0.002987
      dyz     :     0.003485
      dx2y2   :     0.004004
      dxy     :     0.004322
  4 Cls       :     5.987609  s :     5.987609
      pz      :     3.980639  p :    11.936489
      px      :     3.980090
      py      :     3.975761
      dz2     :     0.009484  d :     0.047758
      dxz     :     0.009441
      dyz     :     0.009579
      dx2y2   :     0.009625
      dxy     :     0.009629
  5 H s       :     0.766838  s :     0.766838
  6 H s       :     0.794974  s :     0.794974
  7 H s       :     0.829681  s :     0.829681
  8 H s       :     0.806146  s :     0.806146


                     *******************************
                     * LOEWDIN POPULATION ANALYSIS *
                     *******************************

----------------------
LOEWDIN ATOMIC CHARGES
----------------------
   0 C :   -0.067815
   1 C :   -0.310161
   2 H :    0.120816
   3 F :   -0.189498
   4 Cl:   -0.933717
   5 H :    0.102385
   6 H :    0.094571
   7 H :    0.084421
   8 H :    0.098999

-------------------------------
LOEWDIN REDUCED ORBITAL CHARGES
-------------------------------
  0 C s       :     2.883792  s :     2.883792
      pz      :     1.131835  p :     2.935457
      px      :     1.021607
      py      :     0.782015
      dz2     :     0.040234  d :     0.248566
      dxz     :     0.026914
      dyz     :     0.053274
      dx2y2   :     0.065728
      dxy     :     0.062417
  1 C s       :     2.898240  s :     2.898240
      pz      :     1.108186  p :     3.284623
      px      :     1.076107
      py      :     1.100330
      dz2     :     0.024221  d :     0.127299
      dxz     :     0.027479
      dyz     :     0.021241
      dx2y2   :     0.034191
      dxy     :     0.020168
  2 H s       :     0.879184  s :     0.879184
  3 F s       :     3.737745  s :     3.737745
      pz      :     1.940476  p :     5.432071
      px      :     1.858071
      py      :     1.633525
      dz2     :     0.003699  d :     0.019681
      dxz     :     0.003012
      dyz     :     0.003711
      dx2y2   :     0.004411
      dxy     :     0.004847
  4 Cls       :     5.976229  s :     5.976229
      pz      :     3.979516  p :    11.909586
      px      :     3.976443
      py      :     3.953626
      dz2     :     0.009498  d :     0.047902
      dxz     :     0.009452
      dyz     :     0.009601
      dx2y2   :     0.009659
      dxy     :     0.009693
  5 H s       :     0.897615  s :     0.897615
  6 H s       :     0.905429  s :     0.905429
  7 H s       :     0.915579  s :     0.915579
  8 H s       :     0.901001  s :     0.901001


                      *****************************
                      * MAYER POPULATION ANALYSIS *
                      *****************************

  NA   - Mulliken gross atomic population
  ZA   - Total nuclear charge
  QA   - Mulliken gross atomic charge
  VA   - Mayer's total valence
  BVA  - Mayer's bonded valence
  FA   - Mayer's free valence

  ATOM       NA         ZA         QA         VA         BVA        FA
  0 C      6.0152     6.0000    -0.0152     3.6523     3.3936     0.2588
  1 C      6.6480     6.0000    -0.6480     3.8494     3.5779     0.2715
  2 H      0.7487     1.0000     0.2513     0.9053     0.8689     0.0364
  3 F      9.4186     9.0000    -0.4186     1.0421     0.7247     0.3174
  4 Cl    17.9719    17.0000    -0.9719     0.4156     0.0269     0.3887
  5 H      0.7668     1.0000     0.2332     0.9156     0.8803     0.0353
  6 H      0.7950     1.0000     0.2050     0.9243     0.8882     0.0361
  7 H      0.8297     1.0000     0.1703     0.9273     0.8876     0.0397
  8 H      0.8061     1.0000     0.1939     0.9212     0.8839     0.0374

  Mayer bond orders larger than 0.100000
B(  0-C ,  1-C ) :   0.9014 B(  0-C ,  3-F ) :   0.7115 B(  0-C ,  5-H ) :   0.9031 
B(  0-C ,  6-H ) :   0.9150 B(  1-C ,  2-H ) :   0.8929 B(  1-C ,  7-H ) :   0.9135 
B(  1-C ,  8-H ) :   0.9196 


                *******************************************
                * RELAXED MP2 DENSITY POPULATION ANALYSIS *
                *******************************************

------------------------------------------------------------------------------
                           ORCA POPULATION ANALYSIS
------------------------------------------------------------------------------
Input electron density              ... orca.pmp2re
BaseName (.gbw .S,...)              ... orca

                    ********************************
                    * MULLIKEN POPULATION ANALYSIS *
                    ********************************

-----------------------
MULLIKEN ATOMIC CHARGES
-----------------------
   0 C :   -0.077648
   1 C :   -0.682831
   2 H :    0.256465
   3 F :   -0.353689
   4 Cl:   -0.958042
   5 H :    0.231212
   6 H :    0.204818
   7 H :    0.176316
   8 H :    0.203399
Sum of atomic charges:   -1.0000000

--------------------------------
MULLIKEN REDUCED ORBITAL CHARGES
--------------------------------
  0 C s       :     3.205454  s :     3.205454
      pz      :     1.175221  p :     2.745037
      px      :     0.908660
      py      :     0.661155
      dz2     :     0.020811  d :     0.127157
      dxz     :     0.017295
      dyz     :     0.029156
      dx2y2   :     0.029717
      dxy     :     0.030179
  1 C s       :     3.343570  s :     3.343570
      pz      :     1.142982  p :     3.262159
      px      :     1.000471
      py      :     1.118706
      dz2     :     0.015135  d :     0.077103
      dxz     :     0.016496
      dyz     :     0.014787
      dx2y2   :     0.018000
      dxy     :     0.012684
  2 H s       :     0.743535  s :     0.743535
  3 F s       :     3.956072  s :     3.956072
      pz      :     1.938309  p :     5.379473
      px      :     1.856549
      py      :     1.584615
      dz2     :     0.003412  d :     0.018144
      dxz     :     0.002995
      dyz     :     0.003523
      dx2y2   :     0.003978
      dxy     :     0.004236
  4 Cls       :     5.986475  s :     5.986475
      pz      :     3.977597  p :    11.923793
      px      :     3.976744
      py      :     3.969451
      dz2     :     0.009487  d :     0.047773
      dxz     :     0.009442
      dyz     :     0.009581
      dx2y2   :     0.009629
      dxy     :     0.009635
  5 H s       :     0.768788  s :     0.768788
  6 H s       :     0.795182  s :     0.795182
  7 H s       :     0.823684  s :     0.823684
  8 H s       :     0.796601  s :     0.796601


                     *******************************
                     * LOEWDIN POPULATION ANALYSIS *
                     *******************************

----------------------
LOEWDIN ATOMIC CHARGES
----------------------
   0 C :   -0.106778
   1 C :   -0.345719
   2 H :    0.128777
   3 F :   -0.152787
   4 Cl:   -0.925603
   5 H :    0.104508
   6 H :    0.097261
   7 H :    0.092477
   8 H :    0.107864

-------------------------------
LOEWDIN REDUCED ORBITAL CHARGES
-------------------------------
  0 C s       :     2.888675  s :     2.888675
      pz      :     1.143428  p :     2.978715
      px      :     1.028771
      py      :     0.806515
      dz2     :     0.037001  d :     0.239388
      dxz     :     0.026528
      dyz     :     0.052086
      dx2y2   :     0.064008
      dxy     :     0.059765
  1 C s       :     2.901571  s :     2.901571
      pz      :     1.124114  p :     3.327956
      px      :     1.088960
      py      :     1.114882
      dz2     :     0.021422  d :     0.116192
      dxz     :     0.026404
      dyz     :     0.018789
      dx2y2   :     0.030403
      dxy     :     0.019175
  2 H s       :     0.871223  s :     0.871223
  3 F s       :     3.736420  s :     3.736420
      pz      :     1.934671  p :     5.396611
      px      :     1.847605
      py      :     1.614335
      dz2     :     0.003692  d :     0.019755
      dxz     :     0.003024
      dyz     :     0.003758
      dx2y2   :     0.004433
      dxy     :     0.004848
  4 Cls       :     5.975943  s :     5.975943
      pz      :     3.977897  p :    11.901739
      px      :     3.974547
      py      :     3.949294
      dz2     :     0.009501  d :     0.047921
      dxz     :     0.009453
      dyz     :     0.009603
      dx2y2   :     0.009663
      dxy     :     0.009701
  5 H s       :     0.895492  s :     0.895492
  6 H s       :     0.902739  s :     0.902739
  7 H s       :     0.907523  s :     0.907523
  8 H s       :     0.892136  s :     0.892136


                      *****************************
                      * MAYER POPULATION ANALYSIS *
                      *****************************

  NA   - Mulliken gross atomic population
  ZA   - Total nuclear charge
  QA   - Mulliken gross atomic charge
  VA   - Mayer's total valence
  BVA  - Mayer's bonded valence
  FA   - Mayer's free valence

  ATOM       NA         ZA         QA         VA         BVA        FA
  0 C      6.0776     6.0000    -0.0776     3.7387     3.4849     0.2539
  1 C      6.6828     6.0000    -0.6828     3.8505     3.5820     0.2685
  2 H      0.7435     1.0000     0.2565     0.9075     0.8720     0.0355
  3 F      9.3537     9.0000    -0.3537     1.1371     0.8246     0.3125
  4 Cl    17.9580    17.0000    -0.9580     0.4414     0.0548     0.3866
  5 H      0.7688     1.0000     0.2312     0.9182     0.8834     0.0347
  6 H      0.7952     1.0000     0.2048     0.9248     0.8892     0.0356
  7 H      0.8237     1.0000     0.1763     0.9287     0.8900     0.0387
  8 H      0.7966     1.0000     0.2034     0.9183     0.8816     0.0367

  Mayer bond orders larger than 0.100000
B(  0-C ,  1-C ) :   0.9194 B(  0-C ,  3-F ) :   0.7933 B(  0-C ,  5-H ) :   0.8945 
B(  0-C ,  6-H ) :   0.9070 B(  1-C ,  2-H ) :   0.8851 B(  1-C ,  7-H ) :   0.9074 
B(  1-C ,  8-H ) :   0.9153 


-------
TIMINGS
-------

Total time                :    8.801 sec
Integral trafo            :    0.554 sec (  6.3%)
I/O of integrals          :    0.003 sec (  0.0%)
K(i,j) Operators          :    0.352 sec (  4.0%)
T(i,j) pair energies      :    0.012 sec (  0.1%)
V-calculation             :    0.003 sec (  0.0%)
V**(-1/2)                 :    0.048 sec (  0.5%)
Gamma(ia|P)               :    0.329 sec (  3.7%)
Gamma-Trafo               :    0.299 sec (  3.4%)
D(virtual)                :    0.040 sec (  0.5%)
D(internal)               :    0.018 sec (  0.2%)
W(virtual)                :    0.079 sec (  0.9%)
W(internal)               :    0.077 sec (  0.9%)
L(virtual)                :    0.348 sec (  4.0%)
L(internal)               :    0.019 sec (  0.2%)
G(D)                      :    0.568 sec (  6.5%)
G(Z)                      :    0.568 sec (  6.5%)
Z-Vector Solution         :    2.779 sec ( 31.6%)
3-Index Derivative        :    0.629 sec (  7.1%)
2-Index Derivative        :    0.064 sec (  0.7%)
Separable Gradient        :    1.831 sec ( 20.8%)


---------------------------------------
MP2 TOTAL ENERGY:     -638.416722565 Eh
---------------------------------------

The final MP2 gradient
  0:  -0.00067792  -0.00040128   0.00000493
  1:  -0.00016684  -0.00066584  -0.00020970
  2:   0.00121814   0.00064037   0.00150380
  3:   0.00066021  -0.00042001   0.00103823
  4:  -0.00057205   0.00256512   0.00009874
  5:  -0.00032996   0.00041810  -0.00073418
  6:   0.00000035  -0.00130088  -0.00016919
  7:  -0.00109883   0.00048473  -0.00106282
  8:   0.00096690  -0.00132031  -0.00046980

-----------------------------------
NORM OF THE MP2 GRADIENT:  0.004681
-----------------------------------

Maximum memory used throughout the entire MP2-calculation: 119.5 MB

-------------------------   --------------------
FINAL SINGLE POINT ENERGY      -638.416722564992
-------------------------   --------------------


                            ***************************************
                            *     ORCA property calculations      *
                            ***************************************

                                    ---------------------
                                    Active property flags
                                    ---------------------
   (+) Dipole Moment


------------------------------------------------------------------------------
                       ORCA ELECTRIC PROPERTIES CALCULATION
------------------------------------------------------------------------------

Dipole Moment Calculation                       ... on
Quadrupole Moment Calculation                   ... off
Polarizability Calculation                      ... off
GBWName                                         ... orca.gbw
Electron density                                ... orca.scfp
The origin for moment calculation is the CENTER OF MASS  = ( 0.994259, -2.026516 -0.253519)

-------------
DIPOLE MOMENT
-------------
                                X             Y             Z
Electronic contribution:     -3.29541      -2.37582      -0.52594
Nuclear contribution   :      3.24348       5.10686       0.96307
                        -----------------------------------------
Total Dipole Moment    :     -0.05193       2.73104       0.43712
                        -----------------------------------------
Magnitude (a.u.)       :      2.76629
Magnitude (Debye)      :      7.03135



--------------------
Rotational spectrum 
--------------------
 
Rotational constants in cm-1:     0.414882     0.054832     0.049340 
Rotational constants in MHz : 12437.861338  1643.808618  1479.162533 

 Dipole components along the rotational axes: 
x,y,z [a.u.] :    -2.721163     0.492591    -0.070609 
x,y,z [Debye]:    -6.916646     1.252066    -0.179473 

 

                         *** MP2 UNRELAXED DENSITY ***

------------------------------------------------------------------------------
                       ORCA ELECTRIC PROPERTIES CALCULATION
------------------------------------------------------------------------------

Dipole Moment Calculation                       ... on
Quadrupole Moment Calculation                   ... off
Polarizability Calculation                      ... off
GBWName                                         ... orca.gbw
Electron density                                ... orca.pmp2ur
The origin for moment calculation is the CENTER OF MASS  = ( 0.994259, -2.026516 -0.253519)

-------------
DIPOLE MOMENT
-------------
                                X             Y             Z
Electronic contribution:     -3.30626      -2.36270      -0.52633
Nuclear contribution   :      3.24348       5.10686       0.96307
                        -----------------------------------------
Total Dipole Moment    :     -0.06278       2.74416       0.43674
                        -----------------------------------------
Magnitude (a.u.)       :      2.77941
Magnitude (Debye)      :      7.06469



--------------------
Rotational spectrum 
--------------------
 
Rotational constants in cm-1:     0.414882     0.054832     0.049340 
Rotational constants in MHz : 12437.861338  1643.808618  1479.162533 

 Dipole components along the rotational axes: 
x,y,z [a.u.] :    -2.735998     0.484464    -0.068646 
x,y,z [Debye]:    -6.954354     1.231410    -0.174484 

 

                           *** MP2 RELAXED DENSITY ***

------------------------------------------------------------------------------
                       ORCA ELECTRIC PROPERTIES CALCULATION
------------------------------------------------------------------------------

Dipole Moment Calculation                       ... on
Quadrupole Moment Calculation                   ... off
Polarizability Calculation                      ... off
GBWName                                         ... orca.gbw
Electron density                                ... orca.pmp2re
The origin for moment calculation is the CENTER OF MASS  = ( 0.994259, -2.026516 -0.253519)

-------------
DIPOLE MOMENT
-------------
                                X             Y             Z
Electronic contribution:     -3.35098      -2.34308      -0.53338
Nuclear contribution   :      3.24348       5.10686       0.96307
                        -----------------------------------------
Total Dipole Moment    :     -0.10749       2.76378       0.42969
                        -----------------------------------------
Magnitude (a.u.)       :      2.79905
Magnitude (Debye)      :      7.11461



--------------------
Rotational spectrum 
--------------------
 
Rotational constants in cm-1:     0.414882     0.054832     0.049340 
Rotational constants in MHz : 12437.861338  1643.808618  1479.162533 

 Dipole components along the rotational axes: 
x,y,z [a.u.] :    -2.762945     0.444112    -0.059732 
x,y,z [Debye]:    -7.022847     1.128842    -0.151827 

 

Timings for individual modules:

Sum of individual times         ...       11.010 sec (=   0.183 min)
GTO integral calculation        ...        0.231 sec (=   0.004 min)   2.1 %
SCF iterations                  ...        1.802 sec (=   0.030 min)  16.4 %
MP2 module                      ...        8.977 sec (=   0.150 min)  81.5 %
                             ****ORCA TERMINATED NORMALLY****
TOTAL RUN TIME: 0 days 0 hours 0 minutes 11 seconds 310 msec
