21
Properties=species:S:1:pos:R:3 energy=-90.94598267579453 pbc="F F F"
N        3.85432000       4.55935000       6.36738000
C        3.87675000       3.62246000       7.34731000
C        5.05693000       2.90939000       7.64317000
C        6.21990000       3.17687000       6.89318000
C        6.13820000       4.14601000       5.88733000
C        4.94372000       4.84964000       5.64397000
H        2.97150000       3.40374000       7.93228000
H        5.06629000       2.15180000       8.44462000
H        7.15960000       2.63779000       7.08829000
H        7.03115000       4.37559000       5.28256000
S        4.11089000       3.13039000       2.72286000
C        5.80583000       3.40978000       2.32398000
H        5.74175000       4.01677000       1.38697000
H        6.24623000       3.98393000       3.16620000
H        6.36056000       2.46642000       2.15808000
C        3.68943000       6.77179000       4.86376000
O        4.87843000       5.88459000       4.55234000
H        3.61733000       7.51883000       4.04680000
H        2.80654000       6.10150000       4.90867000
H        3.89943000       7.23687000       5.84902000
H        3.80481000       4.27578000       2.95545000
