9
Lattice="1.0 0.0 0.0 0.0 1.0 0.0 0.0 0.0 1.0" Properties=species:S:1:pos:R:3:forces:R:3 R1=H R2=H R3=CH3 R4=CH3 leaving_group=Cl nucleophile=Cl rxn=sn2 config=rcc label=H_H_CH3_CH3_Cl_Cl_sn2_rcc conformation=0 reactant_id=H_H_CH3_CH3_Cl_none_-_r product_id=H_H_CH3_CH3_none_Cl_sn2_pc mp2_author_energy=-29302.391748605172 mp2_my_energy=0 hash=59123 address=T id=71 energy=-17372.33216497299 free_energy=-17372.33216497299 cell="(1,0,0), (0,1,0), (0,0,1)" pbc="F F F"
C        0.09142836      -0.02057665       0.00018700      -0.00383810       0.00153641      -0.00068481
C        1.58722280       0.14924827      -0.00111085       0.00020147      -0.00237977      -0.00061630
H        2.03195864      -0.84661872      -0.00635447      -0.00043287       0.00066109       0.00360198
F       -0.53491861       1.24651010      -0.01033438       0.00123778      -0.00105707       0.00337249
Cl       0.88543890      -3.39675651       0.00603569      -0.00050197      -0.00038193      -0.00016305
H       -0.24798218      -0.56713807      -0.87777751      -0.00113173       0.00148985       0.00279851
H       -0.24989953      -0.55273097       0.88632969       0.00349898      -0.00246302      -0.00540624
H        1.91405155       0.69490750       0.88785996      -0.00213133       0.00382493      -0.00088743
H        1.90859158       0.70242064      -0.88742268       0.00309776      -0.00123049      -0.00201515
9
Lattice="1.0 0.0 0.0 0.0 1.0 0.0 0.0 0.0 1.0" Properties=species:S:1:pos:R:3:forces:R:3 R1=H R2=H R3=CH3 R4=CH3 leaving_group=Cl nucleophile=Cl rxn=sn2 config=rcc label=H_H_CH3_CH3_Cl_Cl_sn2_rcc conformation=0 reactant_id=H_H_CH3_CH3_Cl_none_-_r product_id=H_H_CH3_CH3_none_Cl_sn2_pc mp2_author_energy=-29302.391748605172 mp2_my_energy=0 hash=59123 address=T id=71 energy=-17372.33137132884 free_energy=-17372.33137132884 cell="(1,0,0), (0,1,0), (0,0,1)" stress="-2.581972723100604e-10 8.807344720234594e-09 2.7070845787092887e-11 8.807344720234594e-09 1.094881364781904e-09 7.504602911710137e-09 2.7070845787092887e-11 7.504602911710137e-09 3.198207003497808e-10" pbc="F F F"
C        0.09723746      -0.02765142       0.01652183      -0.00073490       0.00087767      -0.00108796
C        1.59128724       0.15750410       0.00961658      -0.00048880      -0.00103112      -0.00071390
H        2.04631384      -0.83247870       0.05569731      -0.00192255      -0.00190794      -0.00365969
F       -0.54274252       1.23083361      -0.05040484       0.00078926       0.00200817       0.00293577
Cl       0.84751721      -3.39735632      -0.09032858       0.00476489       0.00049556       0.00622809
H       -0.23548370      -0.61723771      -0.83496256      -0.00167562       0.00395325      -0.00306758
H       -0.23949528      -0.52233048       0.92608003      -0.00117253      -0.00174703      -0.00255805
H        1.91042343       0.75269435       0.86931231       0.00036256      -0.00405929       0.00116208
H        1.91083382       0.66528817      -0.90411962       0.00007770       0.00141073       0.00076124
9
Lattice="1.0 0.0 0.0 0.0 1.0 0.0 0.0 0.0 1.0" Properties=species:S:1:pos:R:3:forces:R:3 R1=H R2=H R3=CH3 R4=CH3 leaving_group=Cl nucleophile=Cl rxn=sn2 config=rcc label=H_H_CH3_CH3_Cl_Cl_sn2_rcc conformation=0 reactant_id=H_H_CH3_CH3_Cl_none_-_r product_id=H_H_CH3_CH3_none_Cl_sn2_pc mp2_author_energy=-29302.391748605172 mp2_my_energy=0 hash=59123 address=T id=71 energy=-17372.32885681128 free_energy=-17372.32885681128 cell="(1,0,0), (0,1,0), (0,0,1)" stress="-4.4096826216382717e-10 2.0099918024816254e-08 1.0909682942203485e-09 2.0099918024816254e-08 -2.9660464992357164e-09 7.418800492252424e-09 1.0909682942203485e-09 7.418800492252424e-09 8.639788318754572e-10" pbc="F F F"
C        0.10131124      -0.03075807       0.03503752      -0.00169334       0.00229041      -0.00096836
C        1.59394058       0.16476211       0.02123221      -0.00111411      -0.00210801      -0.00078340
H        2.05800484      -0.81810000       0.10949591      -0.00429631      -0.00401948      -0.00444004
F       -0.54718863       1.21724049      -0.10367993       0.00174657       0.00462063       0.00269172
Cl       0.82051759      -3.41370626      -0.19288914       0.01089018      -0.00117380       0.00625447
H       -0.22388410      -0.67067344      -0.78156828      -0.00383432       0.00551689      -0.00292791
H       -0.23514229      -0.47333643       0.97139378      -0.00269861       0.00050880      -0.00203938
H        1.90892039       0.80055028       0.85294008       0.00107980      -0.00602324       0.00145855
H        1.90941189       0.63328691      -0.91454971      -0.00007986       0.00038780       0.00075435
9
Lattice="1.0 0.0 0.0 0.0 1.0 0.0 0.0 0.0 1.0" Properties=species:S:1:pos:R:3:forces:R:3 R1=H R2=H R3=CH3 R4=CH3 leaving_group=Cl nucleophile=Cl rxn=sn2 config=rcc label=H_H_CH3_CH3_Cl_Cl_sn2_rcc conformation=0 reactant_id=H_H_CH3_CH3_Cl_none_-_r product_id=H_H_CH3_CH3_none_Cl_sn2_pc mp2_author_energy=-29302.391748605172 mp2_my_energy=0 hash=59123 address=T id=71 energy=-17372.32754583197 free_energy=-17372.32754583197 cell="(1,0,0), (0,1,0), (0,0,1)" stress="-4.913316634592743e-10 2.8661293596964e-08 2.7157033284963546e-09 2.8661293596964e-08 -1.0524659787846605e-08 -2.03620388928317e-09 2.7157033284963546e-09 -2.03620388928317e-09 -6.460015036463214e-10" pbc="F F F"
C        0.10438105      -0.03237356       0.05319640      -0.00245448       0.00367456       0.00072576
C        1.59591200       0.17070409       0.03206385      -0.00160513      -0.00275148      -0.00009216
H        2.06776082      -0.80454351       0.15640664      -0.00593502      -0.00509855      -0.00197396
F       -0.55037440       1.20194369      -0.15738707       0.00245488       0.00580773      -0.00168166
Cl       0.79939981      -3.43092733      -0.29055044       0.01555482      -0.00449635      -0.00139297
H       -0.21338659      -0.72047098      -0.72601700      -0.00545501       0.00346246       0.00198159
H       -0.23339035      -0.41978158       1.01333333      -0.00391984       0.00734902       0.00166735
H        1.90831579       0.84006376       0.83793913       0.00204011      -0.00522402       0.00053244
H        1.90727338       0.60465101      -0.92157238      -0.00068033      -0.00272337       0.00023361
9
Lattice="1.0 0.0 0.0 0.0 1.0 0.0 0.0 0.0 1.0" Properties=species:S:1:pos:R:3:forces:R:3 R1=H R2=H R3=CH3 R4=CH3 leaving_group=Cl nucleophile=Cl rxn=sn2 config=rcc label=H_H_CH3_CH3_Cl_Cl_sn2_rcc conformation=0 reactant_id=H_H_CH3_CH3_Cl_none_-_r product_id=H_H_CH3_CH3_none_Cl_sn2_pc mp2_author_energy=-29302.391748605172 mp2_my_energy=0 hash=59123 address=T id=71 energy=-17372.328605414645 free_energy=-17372.328605414645 cell="(1,0,0), (0,1,0), (0,0,1)" stress="-4.1149691255086853e-10 2.9420876170356602e-08 3.753983109097224e-09 2.9420876170356602e-08 -9.187830896410523e-09 -1.2024764208813816e-08 3.753983109097224e-09 -1.2024764208813816e-08 -3.7464953047625255e-09" pbc="F F F"
C        0.10707028      -0.03392362       0.07087362      -0.00255538       0.00389166       0.00252716
C        1.59763787       0.17554960       0.04222079      -0.00166444      -0.00290843       0.00067524
H        2.07656442      -0.79143267       0.19977753      -0.00600450      -0.00477013       0.00184637
F       -0.55294634       1.18337058      -0.20936585       0.00243436       0.00450414      -0.00587736
Cl       0.78039300      -3.44303968      -0.38352030       0.01602784      -0.00434505      -0.00979714
H       -0.20332021      -0.76670276      -0.66975370      -0.00574345       0.00020204       0.00746149
H       -0.23251547      -0.36627575       1.05088959      -0.00392032       0.01252829       0.00488390
H        1.90802399       0.87469582       0.82309483       0.00260452      -0.00280645      -0.00123374
H        1.90498397       0.57702407      -0.92680407      -0.00117864      -0.00629607      -0.00048593
9
Lattice="1.0 0.0 0.0 0.0 1.0 0.0 0.0 0.0 1.0" Properties=species:S:1:pos:R:3:forces:R:3 R1=H R2=H R3=CH3 R4=CH3 leaving_group=Cl nucleophile=Cl rxn=sn2 config=rcc label=H_H_CH3_CH3_Cl_Cl_sn2_rcc conformation=0 reactant_id=H_H_CH3_CH3_Cl_none_-_r product_id=H_H_CH3_CH3_none_Cl_sn2_pc mp2_author_energy=-29302.391748605172 mp2_my_energy=0 hash=59123 address=T id=71 energy=-17372.330577046247 free_energy=-17372.330577046247 cell="(1,0,0), (0,1,0), (0,0,1)" stress="-7.541979756343453e-11 2.0482318044516306e-08 2.1104840349346406e-09 2.0482318044516306e-08 -1.8865072012072556e-08 -1.866534258530121e-08 2.1104840349346406e-09 -1.866534258530121e-08 -8.497666657620297e-09" pbc="F F F"
C        0.11404941      -0.04275293       0.08939963      -0.00192332       0.00360034       0.00400884
C        1.60194401       0.18366445       0.05335364      -0.00118865      -0.00145317       0.00141935
H        2.09531968      -0.76305337       0.27606444      -0.00388961      -0.00388148      -0.00305427
F       -0.55903837       1.15316735      -0.24554499       0.00172343       0.00039227      -0.01545944
Cl       0.73494631      -3.43816340      -0.48950698       0.01128487      -0.00827517      -0.01538191
H       -0.18521136      -0.81166421      -0.61878140      -0.00312265      -0.00696294       0.01544964
H       -0.22392228      -0.33352896       1.08326583      -0.00376070       0.02092054       0.00867881
H        1.89822152       0.93708510       0.78771281       0.00425077      -0.00502607       0.00285103
H        1.90958260       0.52451157      -0.93855054      -0.00337412       0.00068568       0.00148796
9
Lattice="1.0 0.0 0.0 0.0 1.0 0.0 0.0 0.0 1.0" Properties=species:S:1:pos:R:3:forces:R:3 R1=H R2=H R3=CH3 R4=CH3 leaving_group=Cl nucleophile=Cl rxn=sn2 config=rcc label=H_H_CH3_CH3_Cl_Cl_sn2_rcc conformation=0 reactant_id=H_H_CH3_CH3_Cl_none_-_r product_id=H_H_CH3_CH3_none_Cl_sn2_pc mp2_author_energy=-29302.391748605172 mp2_my_energy=0 hash=59123 address=T id=71 energy=-17372.32843339414 free_energy=-17372.32843339414 cell="(1,0,0), (0,1,0), (0,0,1)" stress="8.754700214372008e-11 2.113782714619306e-08 1.546573121129325e-09 2.113782714619306e-08 -3.34932862974989e-08 -1.685382469266446e-08 1.546573121129325e-09 -1.685382469266446e-08 -8.607043076871882e-09" pbc="F F F"
C        0.11397774      -0.04426721       0.08239747      -0.00197101       0.00424190       0.00364121
C        1.60189087       0.18234142       0.04986495      -0.00128986      -0.00085091       0.00132575
H        2.09416461      -0.76592500       0.26830542      -0.00415161      -0.00441959      -0.00754743
F       -0.55913616       1.15986244      -0.22197824       0.00161022       0.00218925      -0.01767582
Cl       0.73643049      -3.42748483      -0.45642795       0.01157430      -0.01332538      -0.01348193
H       -0.18739651      -0.79514955      -0.64360516      -0.00259860      -0.00831865       0.01501271
H       -0.22239421      -0.36038999       1.06898495      -0.00417201       0.02264926       0.01015858
H        1.89599913       0.93179642       0.78919943       0.00498049      -0.00778818       0.00584528
H        1.91235557       0.52848189      -0.93932841      -0.00398192       0.00562229       0.00272163
9
Lattice="1.0 0.0 0.0 0.0 1.0 0.0 0.0 0.0 1.0" Properties=species:S:1:pos:R:3:forces:R:3 R1=H R2=H R3=CH3 R4=CH3 leaving_group=Cl nucleophile=Cl rxn=sn2 config=rcc label=H_H_CH3_CH3_Cl_Cl_sn2_rcc conformation=0 reactant_id=H_H_CH3_CH3_Cl_none_-_r product_id=H_H_CH3_CH3_none_Cl_sn2_pc mp2_author_energy=-29302.391748605172 mp2_my_energy=0 hash=59123 address=T id=71 energy=-17372.315644952127 free_energy=-17372.315644952127 cell="(1,0,0), (0,1,0), (0,0,1)" stress="5.925761443098339e-09 -3.694789675577987e-09 -6.874152314670003e-09 -3.694789675577987e-09 -9.870763021660507e-08 9.808557403529427e-09 -6.874152314670003e-09 9.808557403529427e-09 -4.516191374813214e-09" pbc="F F F"
C        0.11536775      -0.05691004       0.05405160       0.00021508       0.00569317      -0.00008670
C        1.60316061       0.17463556       0.03576697      -0.00070538       0.00605894       0.00033237
H        2.09519507      -0.76896795       0.27139830      -0.00483009      -0.00797732      -0.03644137
F       -0.56013357       1.17496199      -0.10170745      -0.00279248       0.00205410      -0.02775792
Cl       0.73152340      -3.34973342      -0.32759887      -0.00114141      -0.03516795       0.00765612
H       -0.19715043      -0.71491800      -0.75141571       0.00709042      -0.01399754       0.01082306
H       -0.21170033      -0.49400126       0.99623984      -0.00029401       0.02314608       0.00965935
H        1.87846841       0.93424340       0.77188938       0.01013565      -0.02127320       0.02782923
H        1.93116060       0.50995531      -0.95121161      -0.00767777       0.04146373       0.00798587
9
Lattice="1.0 0.0 0.0 0.0 1.0 0.0 0.0 0.0 1.0" Properties=species:S:1:pos:R:3:forces:R:3 R1=H R2=H R3=CH3 R4=CH3 leaving_group=Cl nucleophile=Cl rxn=sn2 config=rcc label=H_H_CH3_CH3_Cl_Cl_sn2_rcc conformation=0 reactant_id=H_H_CH3_CH3_Cl_none_-_r product_id=H_H_CH3_CH3_none_Cl_sn2_pc mp2_author_energy=-29302.391748605172 mp2_my_energy=0 hash=59123 address=T id=71 energy=-17372.261678475646 free_energy=-17372.261678475646 cell="(1,0,0), (0,1,0), (0,0,1)" stress="2.7758580390235195e-08 -2.3587204629614535e-08 -1.18229836070364e-08 -2.3587204629614535e-08 -4.442211005560122e-07 -1.0904040906900846e-08 -1.18229836070364e-08 -1.0904040906900846e-08 -5.205210613087205e-09" pbc="F F F"
C        0.11325706      -0.07888518       0.04468877       0.00140321       0.03095197       0.00350141
C        1.60513167       0.14835476       0.02939992      -0.00390239       0.03518076       0.00247832
H        2.11082050      -0.74696648       0.38595438      -0.04825853      -0.02598005      -0.07213556
F       -0.54819491       1.17248655       0.02895396      -0.03500722       0.01064509      -0.06145808
Cl       0.74467690      -3.20394173      -0.30580247      -0.00540138      -0.15069844       0.00148926
H       -0.22926333      -0.63769252      -0.82011162       0.03678034      -0.03103372       0.02614978
H       -0.21198520      -0.60846378       0.93710036       0.01437512       0.05804656       0.02553177
H        1.84009888       0.99602741       0.67631528       0.05293684      -0.02090569       0.06421122
H        1.96134995       0.36834655      -0.97908612      -0.01292600       0.09379352       0.01023188
9
Lattice="1.0 0.0 0.0 0.0 1.0 0.0 0.0 0.0 1.0" Properties=species:S:1:pos:R:3:forces:R:3 R1=H R2=H R3=CH3 R4=CH3 leaving_group=Cl nucleophile=Cl rxn=sn2 config=rcc label=H_H_CH3_CH3_Cl_Cl_sn2_rcc conformation=0 reactant_id=H_H_CH3_CH3_Cl_none_-_r product_id=H_H_CH3_CH3_none_Cl_sn2_pc mp2_author_energy=-29302.391748605172 mp2_my_energy=0 hash=59123 address=T id=71 energy=-17372.186849142716 free_energy=-17372.186849142716 cell="(1,0,0), (0,1,0), (0,0,1)" stress="6.270073615672976e-08 -7.612767033067879e-09 1.6749225326075576e-08 -7.612767033067879e-09 -9.946332280860372e-07 -8.3073467207473e-08 1.6749225326075576e-08 -8.3073467207473e-08 1.6847125125024643e-08" pbc="F F F"
C        0.11216839      -0.10709557       0.04041152      -0.00626085       0.09426522       0.00926249
C        1.60864874       0.11665308       0.02662862      -0.01735598       0.08431547       0.00226960
H        2.15467764      -0.72583789       0.44422861      -0.16652136      -0.06190149      -0.07618672
F       -0.51621732       1.16272940       0.08327830      -0.10715001       0.02328842      -0.05222480
Cl       0.74893896      -3.06755970      -0.30040193       0.02415878      -0.31057677      -0.01814508
H       -0.26194400      -0.60981157      -0.84512826       0.07958302      -0.03840742       0.04057243
H       -0.22496969      -0.66127421       0.91279675       0.03818670       0.08137269       0.01577359
H        1.79263067       1.01073982       0.62332980       0.16083304       0.02042300       0.06964150
H        1.97195811       0.29072222      -0.98773096      -0.00547332       0.10722088       0.00903699
9
Lattice="1.0 0.0 0.0 0.0 1.0 0.0 0.0 0.0 1.0" Properties=species:S:1:pos:R:3:forces:R:3 R1=H R2=H R3=CH3 R4=CH3 leaving_group=Cl nucleophile=Cl rxn=sn2 config=rcc label=H_H_CH3_CH3_Cl_Cl_sn2_rcc conformation=0 reactant_id=H_H_CH3_CH3_Cl_none_-_r product_id=H_H_CH3_CH3_none_Cl_sn2_pc mp2_author_energy=-29302.391748605172 mp2_my_energy=0 hash=59123 address=T id=71 energy=-17372.016204180894 free_energy=-17372.016204180894 cell="(1,0,0), (0,1,0), (0,0,1)" stress="1.6256728365426196e-07 -6.314572710283801e-08 6.174284098919782e-08 -6.314572710283801e-08 -2.12349934526589e-06 -3.1811001262631794e-07 6.174284098919782e-08 -3.1811001262631794e-07 1.3760002286557115e-07" pbc="F F F"
C        0.11537542      -0.15353346       0.03532553      -0.15746509       0.52484713       0.02938912
C        1.61713586       0.07528382       0.02524187      -0.06852835       0.18701048      -0.00334488
H        2.23695823      -0.69727854       0.47695888      -0.40204837      -0.13215743      -0.06364118
F       -0.46308051       1.15125032       0.10694564      -0.19220418      -0.09904992       0.00107563
Cl       0.73651049      -2.91509701      -0.28764711       0.10277989      -0.65519958      -0.06154012
H       -0.30058710      -0.59201148      -0.86538631       0.16748602      -0.12892728       0.09809188
H       -0.24384295      -0.70063364       0.90477759       0.09407628       0.07963702      -0.08209217
H        1.71382648       0.99798265       0.59304473       0.44374472       0.12528866       0.07768109
H        1.97359558       0.24330293      -0.99184837       0.01215908       0.09855091       0.00438064
9
Lattice="1.0 0.0 0.0 0.0 1.0 0.0 0.0 0.0 1.0" Properties=species:S:1:pos:R:3:forces:R:3 R1=H R2=H R3=CH3 R4=CH3 leaving_group=Cl nucleophile=Cl rxn=sn2 config=rcc label=H_H_CH3_CH3_Cl_Cl_sn2_rcc conformation=0 reactant_id=H_H_CH3_CH3_Cl_none_-_r product_id=H_H_CH3_CH3_none_Cl_sn2_pc mp2_author_energy=-29302.391748605172 mp2_my_energy=0 hash=59123 address=T id=71 energy=-17371.51579171391 free_energy=-17371.51579171391 cell="(1,0,0), (0,1,0), (0,0,1)" stress="3.26838417780898e-07 -5.430170856686061e-07 2.447604497987622e-08 -5.430170856686061e-07 -2.641842099164755e-06 -6.893577477556271e-07 2.447604497987622e-08 -6.893577477556271e-07 1.844341980058091e-07" pbc="F F F"
C        0.14796161      -0.26218806       0.02856174      -0.95987875       2.74194290       0.21186217
C        1.63135677       0.03660376       0.02603765      -0.09341600       0.24626559      -0.01166758
H        2.32057881      -0.67060501       0.48810921      -0.48931075      -0.20594930      -0.03539795
F       -0.42302002       1.17174118       0.10573739       0.10972622      -1.08552098       0.01825270
Cl       0.71483558      -2.77991464      -0.27324600       0.22168006      -1.25651786      -0.14523644
H       -0.33492722      -0.56577129      -0.88568071       0.28182897      -0.49662014       0.07598457
H       -0.26346806      -0.71682649       0.92177158       0.20399580      -0.15857090      -0.19845438
H        1.62207064       0.97090223       0.57878146       0.68639226       0.18369643       0.09452696
H        1.97050340       0.22532390      -0.99265987       0.03898219       0.03127425      -0.00987004
9
Lattice="1.0 0.0 0.0 0.0 1.0 0.0 0.0 0.0 1.0" Properties=species:S:1:pos:R:3:forces:R:3 R1=H R2=H R3=CH3 R4=CH3 leaving_group=Cl nucleophile=Cl rxn=sn2 config=rcc label=H_H_CH3_CH3_Cl_Cl_sn2_rcc conformation=0 reactant_id=H_H_CH3_CH3_Cl_none_-_r product_id=H_H_CH3_CH3_none_Cl_sn2_pc mp2_author_energy=-29302.391748605172 mp2_my_energy=0 hash=59123 address=T id=71 energy=-17370.82179453339 free_energy=-17370.82179453339 cell="(1,0,0), (0,1,0), (0,0,1)" stress="4.406160270536004e-08 -7.658512213352808e-07 -1.2237469954184317e-08 -7.658512213352808e-07 -1.622446016212465e-06 -4.778334679947983e-07 -1.2237469954184317e-08 -4.778334679947983e-07 -2.9718634792989803e-07" pbc="F F F"
C        0.19645854      -0.40087692       0.01817270      -0.92170467       2.89888412       0.25998987
C        1.63604990       0.02422384       0.02647579       0.01812790       0.16397504      -0.00431338
H        2.34539907      -0.66040502       0.48945144      -0.28259087      -0.15915762      -0.01157893
F       -0.42853037       1.22663434       0.10453478       0.26022546      -1.09383173      -0.00642300
Cl       0.70354759      -2.71658386      -0.26552206       0.21027817      -1.13163349      -0.13925791
H       -0.34912506      -0.54084129      -0.88968414       0.11982594      -0.49603136      -0.15151890
H       -0.27373899      -0.70858711       0.93153548       0.09692392      -0.31812337       0.02244443
H        1.58747925       0.96138508       0.57449461       0.44958711       0.13271784       0.04968934
H        1.96835159       0.22431653      -0.99204615       0.04932704       0.00320057      -0.01903152
9
Lattice="1.0 0.0 0.0 0.0 1.0 0.0 0.0 0.0 1.0" Properties=species:S:1:pos:R:3:forces:R:3 R1=H R2=H R3=CH3 R4=CH3 leaving_group=Cl nucleophile=Cl rxn=sn2 config=rcc label=H_H_CH3_CH3_Cl_Cl_sn2_rcc conformation=0 reactant_id=H_H_CH3_CH3_Cl_none_-_r product_id=H_H_CH3_CH3_none_Cl_sn2_pc mp2_author_energy=-29302.391748605172 mp2_my_energy=0 hash=59123 address=T id=71 energy=-17370.42886978118 free_energy=-17370.42886978118 cell="(1,0,0), (0,1,0), (0,0,1)" stress="-9.824211351389024e-08 -5.245270342275811e-07 -2.4449758525946265e-08 -5.245270342275811e-07 -3.932692398041242e-07 -1.729965950607093e-07 -2.4449758525946265e-08 -1.729965950607093e-07 -3.644236698546314e-07" pbc="F F F"
C        0.23557076      -0.52388090       0.00702493      -0.34393568       1.21038914       0.11479528
C        1.63527793       0.01727132       0.02668476       0.03873178       0.09348536       0.00179085
H        2.35748871      -0.65378283       0.48955152      -0.11831636      -0.06568559       0.00147419
F       -0.43951715       1.27306374       0.10458157       0.14567026      -0.52770350      -0.00294599
Cl       0.69455623      -2.66868334      -0.25929327       0.09346322      -0.48745874      -0.06633666
H       -0.35412995      -0.51991575      -0.88328192      -0.02374078      -0.17463209      -0.16144687
H       -0.27791981      -0.69499797       0.93056905      -0.01321207      -0.13174558       0.10799073
H        1.56846568       0.95553593       0.57277318       0.19046671       0.08592869       0.01549603
H        1.96609912       0.22465539      -0.99119736       0.03087292      -0.00257769      -0.01081755
9
Lattice="1.0 0.0 0.0 0.0 1.0 0.0 0.0 0.0 1.0" Properties=species:S:1:pos:R:3:forces:R:3 R1=H R2=H R3=CH3 R4=CH3 leaving_group=Cl nucleophile=Cl rxn=sn2 config=rcc label=H_H_CH3_CH3_Cl_Cl_sn2_rcc conformation=0 reactant_id=H_H_CH3_CH3_Cl_none_-_r product_id=H_H_CH3_CH3_none_Cl_sn2_pc mp2_author_energy=-29302.391748605172 mp2_my_energy=0 hash=59123 address=T id=71 energy=-17370.365337897245 free_energy=-17370.365337897245 cell="(1,0,0), (0,1,0), (0,0,1)" stress="8.649590512025494e-08 3.7073162814125853e-07 5.319166506542851e-08 3.7073162814125853e-07 -2.640334733876766e-07 2.6699603803566155e-08 5.319166506542851e-08 2.6699603803566155e-08 1.2914675326102711e-07" pbc="F F F"
C        0.27654114      -0.66804429      -0.00672392       0.11108612      -0.33664307      -0.03194848
C        1.63065448       0.00616063       0.02649047      -0.00112453      -0.05285554      -0.00745677
H        2.37187561      -0.64633447       0.48829164       0.06508021       0.04098872       0.02050828
F       -0.45670844       1.33596919       0.10427725      -0.07004582       0.25965264       0.01980082
Cl       0.68324554      -2.61094187      -0.25051444      -0.04555992       0.09921324       0.00735554
H       -0.35112743      -0.49948652      -0.86424308       0.04117240       0.04648068       0.06275390
H       -0.27652018      -0.67902652       0.91757541       0.04202128       0.01601228      -0.03830497
H        1.54597202       0.94469589       0.57202841      -0.13983070      -0.05722054      -0.03089635
H        1.96195877       0.22627356      -0.98976930      -0.00279904      -0.01562841      -0.00181197
9
Lattice="1.0 0.0 0.0 0.0 1.0 0.0 0.0 0.0 1.0" Properties=species:S:1:pos:R:3:forces:R:3 R1=H R2=H R3=CH3 R4=CH3 leaving_group=Cl nucleophile=Cl rxn=sn2 config=rcc label=H_H_CH3_CH3_Cl_Cl_sn2_rcc conformation=0 reactant_id=H_H_CH3_CH3_Cl_none_-_r product_id=H_H_CH3_CH3_none_Cl_sn2_pc mp2_author_energy=-29302.391748605172 mp2_my_energy=0 hash=59123 address=T id=71 energy=-17370.489866269705 free_energy=-17370.489866269705 cell="(1,0,0), (0,1,0), (0,0,1)" stress="8.710933787931179e-08 4.622115244427546e-07 7.587398817588129e-08 4.622115244427546e-07 -5.356806825493243e-07 -2.7009175133658252e-08 7.587398817588129e-08 -2.7009175133658252e-08 9.819405990351457e-08" pbc="F F F"
C        0.31536925      -0.76520949      -0.01574554       0.08794003      -0.22010946      -0.02029249
C        1.63464485      -0.02083364       0.02114593       0.00891193      -0.06112447      -0.01164554
H        2.40241921      -0.62201586       0.51106893       0.07192408       0.05266241       0.04413791
F       -0.49080508       1.45933756       0.12305277      -0.07554949       0.27990756       0.03679696
Cl       0.66274061      -2.59604229      -0.25937262      -0.04779505       0.03168426      -0.01465247
H       -0.32555393      -0.48418269      -0.83696824       0.05928858       0.03211462       0.06029327
H       -0.24642464      -0.68536069       0.90409095       0.06693268      -0.01263672      -0.03153566
H        1.46633907       0.91812706       0.54359677      -0.17905180      -0.06454671      -0.05596504
H        1.96716219       0.20544562      -0.99345651       0.00739902      -0.03795149      -0.00713694
9
Lattice="1.0 0.0 0.0 0.0 1.0 0.0 0.0 0.0 1.0" Properties=species:S:1:pos:R:3:forces:R:3 R1=H R2=H R3=CH3 R4=CH3 leaving_group=Cl nucleophile=Cl rxn=sn2 config=rcc label=H_H_CH3_CH3_Cl_Cl_sn2_rcc conformation=0 reactant_id=H_H_CH3_CH3_Cl_none_-_r product_id=H_H_CH3_CH3_none_Cl_sn2_pc mp2_author_energy=-29302.391748605172 mp2_my_energy=0 hash=59123 address=T id=71 energy=-17370.56937856957 free_energy=-17370.56937856957 cell="(1,0,0), (0,1,0), (0,0,1)" stress="1.880685755214869e-08 1.2613557596774547e-07 6.972206513044338e-08 1.2613557596774547e-07 -1.6883286361951674e-07 -1.0356351999705946e-07 6.972206513044338e-08 -1.0356351999705946e-07 -3.391784553775098e-08" pbc="F F F"
C        0.34471130      -0.80622619      -0.02464573       0.01865420      -0.02678832      -0.00538128
C        1.64512187      -0.04396107       0.00587368       0.00617384      -0.01459204      -0.00915194
H        2.40203161      -0.54981331       0.61015974       0.00094711       0.04515047       0.06050548
F       -0.52337749       1.56236126       0.21862375      -0.01747431       0.06694972       0.05746995
Cl       0.63572563      -2.60582679      -0.32040857      -0.01732224      -0.00721657      -0.03748383
H       -0.30583035      -0.45245740      -0.81045207       0.01287344       0.01886893       0.01664143
H       -0.19575239      -0.71764339       0.90868522       0.03170490      -0.02116531       0.00288883
H        1.34902179       0.92445239       0.41420797      -0.07545391       0.00269729      -0.07875979
H        2.03423955       0.09838010      -1.00463154       0.03989696      -0.06390419      -0.00672885
9
Lattice="1.0 0.0 0.0 0.0 1.0 0.0 0.0 0.0 1.0" Properties=species:S:1:pos:R:3:forces:R:3 R1=H R2=H R3=CH3 R4=CH3 leaving_group=Cl nucleophile=Cl rxn=sn2 config=rcc label=H_H_CH3_CH3_Cl_Cl_sn2_rcc conformation=0 reactant_id=H_H_CH3_CH3_Cl_none_-_r product_id=H_H_CH3_CH3_none_Cl_sn2_pc mp2_author_energy=-29302.391748605172 mp2_my_energy=0 hash=59123 address=T id=71 energy=-17370.600699264218 free_energy=-17370.600699264218 cell="(1,0,0), (0,1,0), (0,0,1)" stress="3.369742858483431e-08 3.26689881524697e-08 5.128644504230007e-08 3.26689881524697e-08 -7.844740899120869e-08 -9.450309381766241e-08 5.128644504230007e-08 -9.450309381766241e-08 -4.0925509450430394e-08" pbc="F F F"
C        0.35288853      -0.81809766      -0.03046760       0.00599125      -0.00921658      -0.00402372
C        1.64561681      -0.04761670      -0.00478284      -0.00000131      -0.00262231      -0.00743310
H        2.37910477      -0.49353134       0.67295025      -0.01632005       0.04095546       0.04517206
F       -0.52050267       1.59762818       0.28674973       0.00419360       0.02726347       0.04799196
Cl       0.62778120      -2.60936077      -0.36220885      -0.00558703      -0.00303405      -0.03053838
H       -0.30724961      -0.43935762      -0.79770314      -0.00105474       0.00898415       0.00955300
H       -0.17145464      -0.74232228       0.91386025       0.01767912      -0.01904702       0.00401717
H        1.29713876       0.93922361       0.32335894      -0.03891009       0.01036551      -0.06506162
H        2.08256837       0.02270016      -1.00434429       0.03400924      -0.05364863       0.00032263
9
Lattice="1.0 0.0 0.0 0.0 1.0 0.0 0.0 0.0 1.0" Properties=species:S:1:pos:R:3:forces:R:3 R1=H R2=H R3=CH3 R4=CH3 leaving_group=Cl nucleophile=Cl rxn=sn2 config=rcc label=H_H_CH3_CH3_Cl_Cl_sn2_rcc conformation=0 reactant_id=H_H_CH3_CH3_Cl_none_-_r product_id=H_H_CH3_CH3_none_Cl_sn2_pc mp2_author_energy=-29302.391748605172 mp2_my_energy=0 hash=59123 address=T id=71 energy=-17370.617753531835 free_energy=-17370.617753531835 cell="(1,0,0), (0,1,0), (0,0,1)" stress="3.1731630448883936e-08 -2.392847915681239e-10 2.2112241948155625e-08 -2.392847915681239e-10 -3.795791096687211e-08 -5.155296261406596e-08 2.2112241948155625e-08 -5.155296261406596e-08 -2.3509123514678893e-08" pbc="F F F"
C        0.35600844      -0.82608163      -0.03632454       0.00138410      -0.00390867      -0.00223403