9
Lattice="1.0 0.0 0.0 0.0 1.0 0.0 0.0 0.0 1.0" Properties=species:S:1:pos:R:3:forces:R:3 R1=H R2=H R3=CH3 R4=CH3 leaving_group=Cl nucleophile=Cl rxn=sn2 config=rcc label=H_H_CH3_CH3_Cl_Cl_sn2_rcc conformation=0 reactant_id=H_H_CH3_CH3_Cl_none_-_r product_id=H_H_CH3_CH3_none_Cl_sn2_pc mp2_author_energy=-29302.391748605172 mp2_my_energy=0 hash=59123 address=T id=71 energy=-17372.33216497299 free_energy=-17372.33216497299 cell="(1,0,0), (0,1,0), (0,0,1)" pbc="F F F"
C        0.09142836      -0.02057665       0.00018700      -0.00383810       0.00153641      -0.00068481
C        1.58722280       0.14924827      -0.00111085       0.00020147      -0.00237977      -0.00061630
H        2.03195864      -0.84661872      -0.00635447      -0.00043287       0.00066109       0.00360198
F       -0.53491861       1.24651010      -0.01033438       0.00123778      -0.00105707       0.00337249
Cl       0.88543890      -3.39675651       0.00603569      -0.00050197      -0.00038193      -0.00016305
H       -0.24798218      -0.56713807      -0.87777751      -0.00113173       0.00148985       0.00279851
H       -0.24989953      -0.55273097       0.88632969       0.00349898      -0.00246302      -0.00540624
H        1.91405155       0.69490750       0.88785996      -0.00213133       0.00382493      -0.00088743
H        1.90859158       0.70242064      -0.88742268       0.00309776      -0.00123049      -0.00201515
9
Lattice="1.0 0.0 0.0 0.0 1.0 0.0 0.0 0.0 1.0" Properties=species:S:1:pos:R:3:forces:R:3 R1=H R2=H R3=CH3 R4=CH3 leaving_group=Cl nucleophile=Cl rxn=sn2 config=rcc label=H_H_CH3_CH3_Cl_Cl_sn2_rcc conformation=0 reactant_id=H_H_CH3_CH3_Cl_none_-_r product_id=H_H_CH3_CH3_none_Cl_sn2_pc mp2_author_energy=-29302.391748605172 mp2_my_energy=0 hash=59123 address=T id=71 energy=-17372.330960739182 free_energy=-17372.330960739182 cell="(1,0,0), (0,1,0), (0,0,1)" stress="-8.264355090416159e-11 3.1572698743334125e-09 -4.187242058461861e-10 3.1572698743334125e-09 -4.3691845158885994e-10 1.0014215192670642e-08 -4.187242058461861e-10 1.0014215192670642e-08 3.739813925579494e-10" pbc="F F F"
C        0.09036001      -0.01880357       0.01592162      -0.00023430       0.00032970      -0.00129796
C        1.58658585       0.14848973       0.01014432      -0.00016953      -0.00034611      -0.00095421
H        2.02988598      -0.84657695       0.06278559      -0.00075908      -0.00101489      -0.00566467
F       -0.53431875       1.24758090      -0.04398032       0.00030882       0.00091141       0.00279281
Cl       0.89118458      -3.39981309      -0.09245444       0.00174775      -0.00002551       0.00805790
H       -0.24934824      -0.60129106      -0.83777351      -0.00065520       0.00335073      -0.00337391
H       -0.25204410      -0.51292889       0.92412361      -0.00038919      -0.00269654      -0.00291942
H        1.91001286       0.74743205       0.86558264       0.00041353      -0.00473330       0.00207290
H        1.91357332       0.64517647      -0.90693706      -0.00026280       0.00422451       0.00128655
9
Lattice="1.0 0.0 0.0 0.0 1.0 0.0 0.0 0.0 1.0" Properties=species:S:1:pos:R:3:forces:R:3 R1=H R2=H R3=CH3 R4=CH3 leaving_group=Cl nucleophile=Cl rxn=sn2 config=rcc label=H_H_CH3_CH3_Cl_Cl_sn2_rcc conformation=0 reactant_id=H_H_CH3_CH3_Cl_none_-_r product_id=H_H_CH3_CH3_none_Cl_sn2_pc mp2_author_energy=-29302.391748605172 mp2_my_energy=0 hash=59123 address=T id=71 energy=-17372.32740232048 free_energy=-17372.32740232048 cell="(1,0,0), (0,1,0), (0,0,1)" stress="-2.3764676297558936e-10 1.228703182685435e-08 -5.964612804608378e-10 1.228703182685435e-08 -1.1264707532073638e-08 1.6419505775608815e-08 -5.964612804608378e-10 1.6419505775608815e-08 1.4959097957645476e-09" pbc="F F F"
C        0.08826079      -0.01545817       0.03436830      -0.00091494       0.00179263      -0.00181900
C        1.58511840       0.14677390       0.02322567      -0.00069182      -0.00083127      -0.00148827
H        2.02638600      -0.84396016       0.13617999      -0.00288032      -0.00367162      -0.01302104
F       -0.53239372       1.24832402      -0.08649380       0.00109359       0.00312070       0.00114131
Cl       0.90268098      -3.40681451      -0.20390408       0.00672936      -0.00407611       0.01302459
H       -0.25127580      -0.63942917      -0.78891173      -0.00202339       0.00452675      -0.00365798
H       -0.25704102      -0.46098199       0.96697573      -0.00177773      -0.00008950      -0.00300658
H        1.90729610       0.79947933       0.83904632       0.00184794      -0.01084718       0.00612549
H        1.91685977       0.58133233      -0.92307394      -0.00138268       0.01007562       0.00270147
9
Lattice="1.0 0.0 0.0 0.0 1.0 0.0 0.0 0.0 1.0" Properties=species:S:1:pos:R:3:forces:R:3 R1=H R2=H R3=CH3 R4=CH3 leaving_group=Cl nucleophile=Cl rxn=sn2 config=rcc label=H_H_CH3_CH3_Cl_Cl_sn2_rcc conformation=0 reactant_id=H_H_CH3_CH3_Cl_none_-_r product_id=H_H_CH3_CH3_none_Cl_sn2_pc mp2_author_energy=-29302.391748605172 mp2_my_energy=0 hash=59123 address=T id=71 energy=-17372.320413764544 free_energy=-17372.320413764544 cell="(1,0,0), (0,1,0), (0,0,1)" stress="1.2642071013371063e-09 2.272983704825958e-08 -1.1885097032062472e-09 2.272983704825958e-08 -3.860102454063546e-08 2.0762528640629e-08 -1.1885097032062472e-09 2.0762528640629e-08 1.889672143202845e-09" pbc="F F F"
C        0.08970327      -0.02019889       0.04954913      -0.00160748       0.00430908      -0.00148518
C        1.58637566       0.14698906       0.03446539      -0.00140905      -0.00051696      -0.00148460
H        2.03381072      -0.82822260       0.22623168      -0.00579445      -0.00907469      -0.02832502
F       -0.53435332       1.23838839      -0.10317769       0.00182783       0.00487012      -0.01015088
Cl       0.88864169      -3.38894573      -0.30460941       0.01248904      -0.01438860       0.01588468
H       -0.24759234      -0.66769644      -0.75559918      -0.00234008      -0.00001653       0.00206495
H       -0.25368428      -0.44049537       0.99484181      -0.00368777       0.01141258       0.00097822
H        1.89789301       0.86617367       0.79701763       0.00540399      -0.02163655       0.01703427
H        1.92509711       0.50327350      -0.94130691      -0.00488204       0.02504155       0.00548355
9
Lattice="1.0 0.0 0.0 0.0 1.0 0.0 0.0 0.0 1.0" Properties=species:S:1:pos:R:3:forces:R:3 R1=H R2=H R3=CH3 R4=CH3 leaving_group=Cl nucleophile=Cl rxn=sn2 config=rcc label=H_H_CH3_CH3_Cl_Cl_sn2_rcc conformation=0 reactant_id=H_H_CH3_CH3_Cl_none_-_r product_id=H_H_CH3_CH3_none_Cl_sn2_pc mp2_author_energy=-29302.391748605172 mp2_my_energy=0 hash=59123 address=T id=71 energy=-17372.30951121064 free_energy=-17372.30951121064 cell="(1,0,0), (0,1,0), (0,0,1)" stress="5.96356401596445e-09 2.533921387122694e-08 -2.5949552916626415e-09 2.533921387122694e-08 -6.639453162569307e-08 2.307371341733372e-08 -2.5949552916626415e-09 2.307371341733372e-08 7.818151331520881e-10" pbc="F F F"
C        0.09247885      -0.02938959       0.05551648      -0.00149660       0.00617404      -0.00082100
C        1.58900870       0.14657984       0.03941981      -0.00189756       0.00083775      -0.00110945
H        2.04549862      -0.80742782       0.30102502      -0.00794916      -0.01603121      -0.04473739
F       -0.53744730       1.22796765      -0.08500120       0.00175715       0.00494266      -0.02563916
Cl       0.86533989      -3.35301011      -0.35574935       0.01412449      -0.02435229       0.01672059
H       -0.24413295      -0.67161454      -0.75358512      -0.00006863      -0.00900433       0.01013545
H       -0.24680010      -0.45916733       0.99802047      -0.00437282       0.02488099       0.00709698
H        1.88534752       0.92055042       0.75289717       0.00895141      -0.03112297       0.03132608
H        1.93659829       0.43477707      -0.95513083      -0.00904827       0.04367536       0.00702790
9
Lattice="1.0 0.0 0.0 0.0 1.0 0.0 0.0 0.0 1.0" Properties=species:S:1:pos:R:3:forces:R:3 R1=H R2=H R3=CH3 R4=CH3 leaving_group=Cl nucleophile=Cl rxn=sn2 config=rcc label=H_H_CH3_CH3_Cl_Cl_sn2_rcc conformation=0 reactant_id=H_H_CH3_CH3_Cl_none_-_r product_id=H_H_CH3_CH3_none_Cl_sn2_pc mp2_author_energy=-29302.391748605172 mp2_my_energy=0 hash=59123 address=T id=71 energy=-17372.294575253094 free_energy=-17372.294575253094 cell="(1,0,0), (0,1,0), (0,0,1)" stress="1.2584590818362918e-08 2.48227668055362e-08 -4.025391301549406e-09 2.48227668055362e-08 -8.707173386514173e-08 2.4710128325454452e-08 -4.025391301549406e-09 2.4710128325454452e-08 -1.2048124385983638e-09" pbc="F F F"
C        0.09417390      -0.03752551       0.05770987      -0.00099548       0.00735076      -0.00014666
C        1.59136797       0.14486662       0.04154877      -0.00238083       0.00216508      -0.00080220
H        2.05572209      -0.78551065       0.36527039      -0.00955129      -0.02430989      -0.05813637
F       -0.53949553       1.22144282      -0.05261730       0.00154638       0.00515037      -0.04046449
Cl       0.84811216      -3.31876884      -0.38444584       0.01403956      -0.03108060       0.01668706
H       -0.24466771      -0.66134913      -0.76437885       0.00279032      -0.01888468       0.01722811
H       -0.24147714      -0.48967803       0.99077852      -0.00399930       0.03647356       0.01385948
H        1.87327478       0.96436835       0.70845064       0.01128708      -0.03744704       0.04570158
H        1.94888098       0.37141996      -0.96490374      -0.01273643       0.06058244       0.00607349
9
Lattice="1.0 0.0 0.0 0.0 1.0 0.0 0.0 0.0 1.0" Properties=species:S:1:pos:R:3:forces:R:3 R1=H R2=H R3=CH3 R4=CH3 leaving_group=Cl nucleophile=Cl rxn=sn2 config=rcc label=H_H_CH3_CH3_Cl_Cl_sn2_rcc conformation=0 reactant_id=H_H_CH3_CH3_Cl_none_-_r product_id=H_H_CH3_CH3_none_Cl_sn2_pc mp2_author_energy=-29302.391748605172 mp2_my_energy=0 hash=59123 address=T id=71 energy=-17372.272998003056 free_energy=-17372.272998003056 cell="(1,0,0), (0,1,0), (0,0,1)" stress="1.9380464944067468e-08 2.3571901191611504e-08 -5.043473920431048e-09 2.3571901191611504e-08 -1.0326962821573572e-07 2.528426294533449e-08 -5.043473920431048e-09 2.528426294533449e-08 -1.471107370895285e-09" pbc="F F F"
C        0.09463922      -0.04425001       0.05852614      -0.00043996       0.00831164       0.00057987
C        1.59361557       0.14239253       0.04269595      -0.00281133       0.00341378      -0.00056355
H        2.06524934      -0.75788364       0.43300635      -0.01076852      -0.03296412      -0.06883036
F       -0.54060151       1.21777265      -0.00701471       0.00117418       0.00600296      -0.05424642
Cl       0.83633892      -3.29041410      -0.40681622       0.01358088      -0.03664180       0.01583814
H       -0.24936782      -0.63860742      -0.78276664       0.00545740      -0.02860048       0.02331212
H       -0.23795329      -0.52809090       0.97624297      -0.00316214       0.04666535       0.02098641
H        1.86079948       1.00769493       0.65544221       0.01289154      -0.04148191       0.05935316
H        1.96317160       0.30065154      -0.97190360      -0.01592205       0.07529459       0.00357063
9
Lattice="1.0 0.0 0.0 0.0 1.0 0.0 0.0 0.0 1.0" Properties=species:S:1:pos:R:3:forces:R:3 R1=H R2=H R3=CH3 R4=CH3 leaving_group=Cl nucleophile=Cl rxn=sn2 config=rcc label=H_H_CH3_CH3_Cl_Cl_sn2_rcc conformation=0 reactant_id=H_H_CH3_CH3_Cl_none_-_r product_id=H_H_CH3_CH3_none_Cl_sn2_pc mp2_author_energy=-29302.391748605172 mp2_my_energy=0 hash=59123 address=T id=71 energy=-17372.255763593756 free_energy=-17372.255763593756 cell="(1,0,0), (0,1,0), (0,0,1)" stress="2.2073764272453452e-08 2.383821353659828e-08 -5.205824955330423e-09 2.383821353659828e-08 -1.328941642828699e-07 2.2071952840049444e-08 -5.205824955330423e-09 2.2071952840049444e-08 -2.7081800560038784e-09" pbc="F F F"
C        0.09474631      -0.04921684       0.05867389      -0.00026925       0.00994854       0.00110371
C        1.59525178       0.14008009       0.04331181      -0.00304959       0.00516425      -0.00038526
H        2.07164002      -0.73708249       0.47738728      -0.01171410      -0.03798398      -0.07168620
F       -0.54120778       1.21429191       0.02571228       0.00000886       0.00822942      -0.06004088
Cl       0.82886192      -3.26768414      -0.41950581       0.01363116      -0.04665473       0.01400854
H       -0.25305962      -0.62163113      -0.79597314       0.00684842      -0.03220730       0.02527301
H       -0.23624808      -0.55561266       0.96436450      -0.00237814       0.05149285       0.02505950
H        1.85285538       1.03414303       0.61750254       0.01415441      -0.03998395       0.06645790
H        1.97305157       0.25197781      -0.97406091      -0.01723178       0.08199490       0.00020968
9
Lattice="1.0 0.0 0.0 0.0 1.0 0.0 0.0 0.0 1.0" Properties=species:S:1:pos:R:3:forces:R:3 R1=H R2=H R3=CH3 R4=CH3 leaving_group=Cl nucleophile=Cl rxn=sn2 config=rcc label=H_H_CH3_CH3_Cl_Cl_sn2_rcc conformation=0 reactant_id=H_H_CH3_CH3_Cl_none_-_r product_id=H_H_CH3_CH3_none_Cl_sn2_pc mp2_author_energy=-29302.391748605172 mp2_my_energy=0 hash=59123 address=T id=71 energy=-17372.23558098411 free_energy=-17372.23558098411 cell="(1,0,0), (0,1,0), (0,0,1)" stress="2.0118091897932713e-08 2.6006109986193998e-08 -5.274841311301059e-09 2.6006109986193998e-08 -1.9137144953383056e-07 1.3476685891440262e-08 -5.274841311301059e-09 1.3476685891440262e-08 -7.791979828573996e-09" pbc="F F F"
C        0.09474619      -0.05518533       0.05837634      -0.00065607       0.01350619       0.00176549
C        1.59702642       0.13668123       0.04373474      -0.00345469       0.00863212       0.00004105
H        2.07856157      -0.71339786       0.52291552      -0.01393642      -0.04367909      -0.06960298
F       -0.54111521       1.20948172       0.06217556      -0.00394527       0.01263863      -0.06267205
Cl       0.82141297      -3.23870258      -0.43027948       0.01467349      -0.06491963       0.01021295
H       -0.25759993      -0.60223211      -0.81067980       0.00828683      -0.03346785       0.02522412
H       -0.23503092      -0.58636113       0.94974367      -0.00137980       0.05456575       0.02863765
H        1.84422035       1.05926622       0.57553932       0.01854757      -0.03270233       0.07213222
H        1.98367006       0.19971543      -0.97411342      -0.01813565       0.08542621      -0.00573845
9
Lattice="1.0 0.0 0.0 0.0 1.0 0.0 0.0 0.0 1.0" Properties=species:S:1:pos:R:3:forces:R:3 R1=H R2=H R3=CH3 R4=CH3 leaving_group=Cl nucleophile=Cl rxn=sn2 config=rcc label=H_H_CH3_CH3_Cl_Cl_sn2_rcc conformation=0 reactant_id=H_H_CH3_CH3_Cl_none_-_r product_id=H_H_CH3_CH3_none_Cl_sn2_pc mp2_author_energy=-29302.391748605172 mp2_my_energy=0 hash=59123 address=T id=71 energy=-17372.18248297936 free_energy=-17372.18248297936 cell="(1,0,0), (0,1,0), (0,0,1)" stress="1.4142424227201445e-08 3.610001538202303e-08 -5.931970070004011e-09 3.610001538202303e-08 -4.1623736991331376e-07 -3.808085356456019e-08 -5.931970070004011e-09 -3.808085356456019e-08 -5.2207676195331816e-09" pbc="F F F"
C        0.09523255      -0.07354501       0.05674313      -0.00685648       0.03742017       0.00542907
C        1.60163737       0.12427759       0.04409690      -0.00758411       0.02665617       0.00363933
H        2.09738568      -0.65069612       0.62454852      -0.03899817      -0.04549673      -0.05118514
F       -0.53551135       1.19258197       0.15010035      -0.02392083       0.02311968      -0.05262522
Cl       0.80309414      -3.14856182      -0.44965369       0.02838623      -0.13515346      -0.00930123
H       -0.27008255      -0.55526510      -0.84467120       0.01516302      -0.02763093       0.02498344
H       -0.23365207      -0.66137087       0.91094702       0.00411823       0.05420417       0.02347319
H        1.81848353       1.10686711       0.47104158       0.05970506      -0.00331962       0.06573183
H        2.00930421       0.07497783      -0.96574015      -0.03001295       0.07020054      -0.01014524
9
Lattice="1.0 0.0 0.0 0.0 1.0 0.0 0.0 0.0 1.0" Properties=species:S:1:pos:R:3:forces:R:3 R1=H R2=H R3=CH3 R4=CH3 leaving_group=Cl nucleophile=Cl rxn=sn2 config=rcc label=H_H_CH3_CH3_Cl_Cl_sn2_rcc conformation=0 reactant_id=H_H_CH3_CH3_Cl_none_-_r product_id=H_H_CH3_CH3_none_Cl_sn2_pc mp2_author_energy=-29302.391748605172 mp2_my_energy=0 hash=59123 address=T id=71 energy=-17371.984269422715 free_energy=-17371.984269422715 cell="(1,0,0), (0,1,0), (0,0,1)" stress="3.557589237356744e-07 -2.1165111422812713e-07 -1.7510301714597423e-08 -2.1165111422812713e-07 -2.1321296276131683e-06 -4.510896791243691e-07 -1.7510301714597423e-08 -4.510896791243691e-07 1.6384391625047366e-07" pbc="F F F"
C        0.10786857      -0.14536969       0.04738696      -0.22554086       0.58242560       0.09723997
C        1.61617079       0.07232784       0.03771829      -0.10137310       0.19360738       0.02865315
H        2.17208013      -0.55582414       0.73423158      -0.29904386      -0.05507124      -0.03026265
F       -0.48935466       1.14852944       0.25761234      -0.00373254      -0.12869366      -0.01789409
Cl       0.75088401      -2.88849702      -0.44032228       0.15533506      -0.63879109      -0.11905083
H       -0.30114276      -0.49780419      -0.89302015       0.09961297      -0.12133151       0.09410717
H       -0.24231181      -0.76780008       0.86513393       0.07492574      -0.01943881      -0.11208101
H        1.70276924       1.11784840       0.33272372       0.49084756       0.20136714       0.04321475
H        2.06892801      -0.07414497      -0.94405193      -0.19103098      -0.01407381       0.01607353
9
Lattice="1.0 0.0 0.0 0.0 1.0 0.0 0.0 0.0 1.0" Properties=species:S:1:pos:R:3:forces:R:3 R1=H R2=H R3=CH3 R4=CH3 leaving_group=Cl nucleophile=Cl rxn=sn2 config=rcc label=H_H_CH3_CH3_Cl_Cl_sn2_rcc conformation=0 reactant_id=H_H_CH3_CH3_Cl_none_-_r product_id=H_H_CH3_CH3_none_Cl_sn2_pc mp2_author_energy=-29302.391748605172 mp2_my_energy=0 hash=59123 address=T id=71 energy=-17371.312283372303 free_energy=-17371.312283372303 cell="(1,0,0), (0,1,0), (0,0,1)" stress="9.259959064861462e-07 -1.4860323463765208e-06 -2.3268235530082154e-07 -1.4860323463765208e-06 -2.1905754095099133e-06 -5.750996352830509e-07 -2.3268235530082154e-07 -5.750996352830509e-07 1.897877639680661e-07" pbc="F F F"
C        0.16112003      -0.28278664       0.02484099      -1.10012647       2.87058100       0.47843291
C        1.64004779       0.02665958       0.03086691      -0.17640661       0.28819330       0.04416432
H        2.24224945      -0.54144746       0.74296807      -0.36131026      -0.06924574      -0.04977724
F       -0.48855746       1.17870916       0.26327193       0.60699565      -1.38267058      -0.19496765
Cl       0.71431172      -2.73761492      -0.41337422       0.24589429      -1.23414671      -0.22446461
H       -0.32480939      -0.46846613      -0.91542207       0.13940526      -0.44566086       0.01378989
H       -0.25989710      -0.76382361       0.89116865       0.11796727      -0.30633140      -0.16808275
H        1.58697061       1.07098395       0.32036900       0.75347453       0.33437339       0.06739999
H        2.11445587      -0.07294833      -0.94727682      -0.22589366      -0.05509239       0.03350514
9
Lattice="1.0 0.0 0.0 0.0 1.0 0.0 0.0 0.0 1.0" Properties=species:S:1:pos:R:3:forces:R:3 R1=H R2=H R3=CH3 R4=CH3 leaving_group=Cl nucleophile=Cl rxn=sn2 config=rcc label=H_H_CH3_CH3_Cl_Cl_sn2_rcc conformation=0 reactant_id=H_H_CH3_CH3_Cl_none_-_r product_id=H_H_CH3_CH3_none_Cl_sn2_pc mp2_author_energy=-29302.391748605172 mp2_my_energy=0 hash=59123 address=T id=71 energy=-17370.665436192798 free_energy=-17370.665436192798 cell="(1,0,0), (0,1,0), (0,0,1)" stress="4.553342711666463e-07 -1.3980179590447272e-06 -2.3014060844585856e-07 -1.3980179590447272e-06 -8.795132513353623e-07 -2.3414835448990692e-07 -2.3014060844585856e-07 -2.3414835448990692e-07 -2.129912372186007e-07" pbc="F F F"
C        0.21030718      -0.41100510       0.00321639      -0.81661275       2.40275262       0.41133840
C        1.64794675       0.01377435       0.02895479      -0.04854998       0.17871118       0.02461361
H        2.25828361      -0.53809472       0.74543663      -0.20088199      -0.04556935      -0.02594739
F       -0.51570087       1.24045444       0.27229221       0.49421260      -1.10587692      -0.15850821
Cl       0.70332754      -2.68241091      -0.40353853       0.17210555      -0.88486548      -0.16198554
H       -0.33103329      -0.44843503      -0.91596082       0.01767143      -0.37414621      -0.16187034
H       -0.26520828      -0.75029834       0.89878356       0.01922057      -0.33689011       0.01747311
H        1.55327493       1.05613776       0.31695858       0.48302676       0.20958171       0.03901465
H        2.12469395      -0.07085687      -0.94873037      -0.12019219      -0.04369744       0.01587173
9
Lattice="1.0 0.0 0.0 0.0 1.0 0.0 0.0 0.0 1.0" Properties=species:S:1:pos:R:3:forces:R:3 R1=H R2=H R3=CH3 R4=CH3 leaving_group=Cl nucleophile=Cl rxn=sn2 config=rcc label=H_H_CH3_CH3_Cl_Cl_sn2_rcc conformation=0 reactant_id=H_H_CH3_CH3_Cl_none_-_r product_id=H_H_CH3_CH3_none_Cl_sn2_pc mp2_author_energy=-29302.391748605172 mp2_my_energy=0 hash=59123 address=T id=71 energy=-17370.365786332302 free_energy=-17370.365786332302 cell="(1,0,0), (0,1,0), (0,0,1)" stress="6.885681161956827e-08 -3.641033092056863e-07 -5.601183559196069e-08 -3.641033092056863e-07 -1.3954596291372635e-07 -4.381426633843777e-08 -5.601183559196069e-08 -4.381426633843777e-08 -9.713449383327373e-08" pbc="F F F"
C        0.25137148      -0.53183423      -0.01747455      -0.16915886       0.51438845       0.08806401
C        1.65038763       0.00479039       0.02768415      -0.00510006       0.04733350       0.00623058
H        2.26825568      -0.53553125       0.74703122      -0.04919324      -0.00832819      -0.00186081
F       -0.54057094       1.29601311       0.28061267       0.10617757      -0.24160856      -0.02902744
Cl       0.69467931      -2.63786313      -0.39560522       0.04561979      -0.20424580      -0.04047558
H       -0.33194769      -0.42951202      -0.90781903      -0.01278472      -0.07354331      -0.05451210
H       -0.26615143      -0.73344675       0.89786981      -0.01023918      -0.07488839       0.02369582
H        1.52896081       1.04571441       0.31456145       0.12009490       0.05787743       0.00370448
H        2.13090667      -0.06906493      -0.94944805      -0.02541621      -0.01698513       0.00418104
9
Lattice="1.0 0.0 0.0 0.0 1.0 0.0 0.0 0.0 1.0" Properties=species:S:1:pos:R:3:forces:R:3 R1=H R2=H R3=CH3 R4=CH3 leaving_group=Cl nucleophile=Cl rxn=sn2 config=rcc label=H_H_CH3_CH3_Cl_Cl_sn2_rcc conformation=0 reactant_id=H_H_CH3_CH3_Cl_none_-_r product_id=H_H_CH3_CH3_none_Cl_sn2_pc mp2_author_energy=-29302.391748605172 mp2_my_energy=0 hash=59123 address=T id=71 energy=-17370.39453014588 free_energy=-17370.39453014588 cell="(1,0,0), (0,1,0), (0,0,1)" stress="-3.956283392374079e-08 5.067497750209721e-07 9.485196530703016e-08 5.067497750209721e-07 1.424793935162794e-07 8.913997790817012e-09 9.485196530703016e-08 8.913997790817012e-09 1.7382790011261422e-07" pbc="F F F"
C        0.28452281      -0.63667725      -0.03561921       0.19193820      -0.60693361      -0.10579739
C        1.65018356      -0.00696132       0.02589724      -0.00119207      -0.06793446      -0.01114658
H        2.27867572      -0.53207124       0.74875790       0.05745538       0.02541714       0.01561829
F       -0.56243672       1.34597758       0.28819298      -0.12691577       0.28813345       0.05132700
Cl       0.68336338      -2.59236460      -0.38754738      -0.06540862       0.26435236       0.04283893
H       -0.32564931      -0.41531754      -0.89203733       0.03596050       0.08390316       0.09137788
H       -0.26050759      -0.71812457       0.88810343       0.03315667       0.08738170      -0.05714350
H        1.50034403       1.03173403       0.31155685      -0.16626348      -0.07871223      -0.02595122
H        2.13739563      -0.06692949      -0.94989203       0.04126919       0.00439249      -0.00112340
9
Lattice="1.0 0.0 0.0 0.0 1.0 0.0 0.0 0.0 1.0" Properties=species:S:1:pos:R:3:forces:R:3 R1=H R2=H R3=CH3 R4=CH3 leaving_group=Cl nucleophile=Cl rxn=sn2 config=rcc label=H_H_CH3_CH3_Cl_Cl_sn2_rcc conformation=0 reactant_id=H_H_CH3_CH3_Cl_none_-_r product_id=H_H_CH3_CH3_none_Cl_sn2_pc mp2_author_energy=-29302.391748605172 mp2_my_energy=0 hash=59123 address=T id=71 energy=-17370.518188064507 free_energy=-17370.518188064507 cell="(1,0,0), (0,1,0), (0,0,1)" stress="9.091960953621804e-10 7.112016593019798e-07 1.357410309421897e-07 7.112016593019798e-07 -3.3699924001846157e-07 -8.472197455938158e-08 1.357410309421897e-07 -8.472197455938158e-08 1.8067873948820086e-07" pbc="F F F"
C        0.31547561      -0.72210349      -0.05027654       0.15099206      -0.41667649      -0.07239731
C        1.65250513      -0.02626762       0.02245756       0.01128663      -0.09403083      -0.01769268
H        2.29621404      -0.52410110       0.75230777       0.08247386       0.04413942       0.02268563
F       -0.59016062       1.41679292       0.29922802      -0.13549625       0.34418665       0.06149266
Cl       0.66760641      -2.56556884      -0.38374413      -0.07675571       0.13164887       0.01519455
H       -0.30869790      -0.40408912      -0.87142996       0.08216641       0.05612490       0.10040487
H       -0.24384509      -0.70637687       0.87368509       0.08174878       0.05637757      -0.07095333
H        1.44719998       1.00507121       0.30542093      -0.25980253      -0.12787341      -0.03836269
H        2.14959395      -0.06409149      -0.95023629       0.06338676       0.00610333      -0.00037172
9
Lattice="1.0 0.0 0.0 0.0 1.0 0.0 0.0 0.0 1.0" Properties=species:S:1:pos:R:3:forces:R:3 R1=H R2=H R3=CH3 R4=CH3 leaving_group=Cl nucleophile=Cl rxn=sn2 config=rcc label=H_H_CH3_CH3_Cl_Cl_sn2_rcc conformation=0 reactant_id=H_H_CH3_CH3_Cl_none_-_r product_id=H_H_CH3_CH3_none_Cl_sn2_pc mp2_author_energy=-29302.391748605172 mp2_my_energy=0 hash=59123 address=T id=71 energy=-17370.58648702512 free_energy=-17370.58648702512 cell="(1,0,0), (0,1,0), (0,0,1)" stress="7.210495322704755e-08 3.095583171769171e-07 6.690615218472841e-08 3.095583171769171e-07 -4.5567859174618254e-07 -1.0345991807286263e-07 6.690615218472841e-08 -1.0345991807286263e-07 3.3509454454538623e-08" pbc="F F F"
C        0.33886891      -0.76998714      -0.05813687       0.05849526      -0.11969294      -0.02064349
C        1.65686023      -0.04380362       0.01884521       0.01083701      -0.04372450      -0.01004564
H        2.31421234      -0.50601557       0.76057705       0.04189516       0.04999972       0.02536348
F       -0.60518073       1.49339250       0.31230972      -0.03776595       0.19042557       0.04044757
Cl       0.64643951      -2.57316973      -0.38963427      -0.05269103      -0.01822931      -0.01717770
H       -0.28777058      -0.39940963      -0.85690280       0.05190236       0.01248384       0.03591493
H       -0.22072166      -0.70694100       0.86536382       0.05817941      -0.00169702      -0.02158356
H        1.37824351       0.97508093       0.29418059      -0.17305413      -0.07307075      -0.03594714
H        2.16493998      -0.05988115      -0.94918999       0.04220190       0.00350539       0.00367154
9
Lattice="1.0 0.0 0.0 0.0 1.0 0.0 0.0 0.0 1.0" Properties=species:S:1:pos:R:3:forces:R:3 R1=H R2=H R3=CH3 R4=CH3 leaving_group=Cl nucleophile=Cl rxn=sn2 config=rcc label=H_H_CH3_CH3_Cl_Cl_sn2_rcc conformation=0 reactant_id=H_H_CH3_CH3_Cl_none_-_r product_id=H_H_CH3_CH3_none_Cl_sn2_pc mp2_author_energy=-29302.391748605172 mp2_my_energy=0 hash=59123 address=T id=71 energy=-17370.609283435755 free_energy=-17370.609283435755 cell="(1,0,0), (0,1,0), (0,0,1)" stress="1.1068623529645668e-07 3.151399260531891e-08 1.6504613503273652e-08 3.151399260531891e-08 -2.3638992481313617e-07 -6.612209168937553e-08 1.6504613503273652e-08 -6.612209168937553e-08 -1.079402631177981e-08" pbc="F F F"
C        0.35116281      -0.79513648      -0.06173288       0.01740050      -0.03526133      -0.00604038
C        1.65685841      -0.05112943       0.01700185       0.00010606      -0.01026141      -0.00370952
H        2.32047339      -0.48057823       0.77325524       0.00592475       0.04009641       0.02183249
F       -0.58964065       1.54645904       0.32325116       0.02111545       0.07361959       0.02277875
Cl       0.62975905      -2.58807646      -0.40174979      -0.02361189      -0.02052292      -0.01882128
H       -0.27680874      -0.40233524      -0.84921236       0.01516685      -0.00356915       0.01026429
H       -0.20414745      -0.72090111       0.86408547       0.02393218      -0.01934917      -0.00254074
H        1.32281239       0.95834835       0.27839100      -0.07867361      -0.02209333      -0.02931642
H        2.17542231      -0.05738485      -0.94587723       0.01863972      -0.00265870       0.00555282
9
Lattice="1.0 0.0 0.0 0.0 1.0 0.0 0.0 0.0 1.0" Properties=species:S:1:pos:R:3:forces:R:3 R1=H R2=H R3=CH3 R4=CH3 leaving_group=Cl nucleophile=Cl rxn=sn2 config=rcc label=H_H_CH3_CH3_Cl_Cl_sn2_rcc conformation=0 reactant_id=H_H_CH3_CH3_Cl_none_-_r product_id=H_H_CH3_CH3_none_Cl_sn2_pc mp2_author_energy=-29302.391748605172 mp2_my_energy=0 hash=59123 address=T id=71 energy=-17370.620130300333 free_energy=-17370.620130300333 cell="(1,0,0), (0,1,0), (0,0,1)" stress="6.082531485510479e-08 -1.7893988382000693e-08 3.9809685588701994e-09 -1.7893988382000693e-08 -6.731867681125175e-08 -2.8328986487857054e-08 3.9809685588701994e-09 -2.8328986487857054e-08 -1.0180587861630423e-08" pbc="F F F"
C        0.35635035      -0.81735060      -0.06282987       0.00176700      -0.00729047      -0.00160478