21
Lattice="1.0 0.0 0.0 0.0 1.0 0.0 0.0 0.0 1.0" Properties=species:S:1:pos:R:3:mp2_forces:R:3:forces:R:3 mp2_energy=-25669.004809123442 energy=-25674.00000887593 free_energy=-25674.00000887593 pbc="F F F"
C        0.16449841      -0.22688921      -0.00019392       0.02520861      -0.02838867       0.00005940       0.00177141      -0.00466653      -0.00515134
C        1.63540084       0.07834407       0.03041571      -0.03334038      -0.00005276       0.00015753      -0.00070580       0.00362097      -0.00222587
H        2.15938099      -0.83584724       0.30815559      -0.02379320       0.02684727      -0.00003962       0.00513300       0.00198689      -0.01552557
F       -0.55437544       0.98518397      -0.28480843       0.00764467      -0.04609678       0.00057088      -0.00396999      -0.00928353      -0.01023889
Cl       0.88110393      -3.40190001       0.06022632      -0.00303207       0.00327824       0.00000605       0.00298302      -0.00766322       0.02059906
H       -0.10155779      -0.93710681      -0.77480791       0.02531842       0.02018914       0.01193200       0.00803442      -0.00751329      -0.00402454
H       -0.20771098      -0.58497555       0.95679826       0.02518310       0.02041626      -0.01261682       0.00145788      -0.00420912      -0.00579310
H        1.85544460       0.86509803       0.75546666      -0.01807683      -0.00921250      -0.02739735      -0.00291592      -0.00524533       0.00938272
H        1.98705563       0.39711819      -0.95255796      -0.01896744      -0.00939623       0.02743771      -0.00325514       0.02050384       0.00135400
O       -3.16145780       2.09100262       0.21866238       0.01788502       0.00752596       0.00024092       0.02398902       0.04045476       0.00635658
H       -2.92417924       2.81515577      -0.35891826      -0.00005808      -0.00429745      -0.00004192       0.02804823       0.01287895      -0.02456182
H       -2.46067368       1.44501356       0.11382667      -0.01992517       0.01473028      -0.00017627       0.00926455       0.02199541       0.01706540
O        0.42529097       3.67715624      -0.24151798      -0.00762941      -0.01045076       0.00072020      -0.04567442       0.00140192       0.00151353
H        0.07011760       3.85317269       0.62870251       0.00884785       0.01126170      -0.00104918      -0.00412384      -0.02951754       0.02361454
H        0.27826701       2.74147086      -0.39541869       0.00793100       0.02846349       0.00013742      -0.03099053       0.00143283      -0.01365632
O       -1.34618386      -5.74828085      -0.03440103       0.00087592      -0.00433965      -0.00013380      -0.00561584      -0.00305274      -0.00242627
H       -0.57690107      -6.31651684      -0.03376764      -0.01595972      -0.00288001       0.00008316      -0.01401706      -0.01513092      -0.00023471
H       -0.95378319      -4.86662220      -0.00781797      -0.00237884      -0.01175777       0.00009761       0.00594475      -0.00877758       0.00331048
O        3.94866177      -4.38993112      -0.04717063       0.00214457       0.00063924      -0.00006669       0.00617242       0.00085537      -0.00515555
H        3.63384110      -5.29000368       0.02466798       0.01577206       0.00171354      -0.00000083       0.01727713      -0.00248414       0.00543558
H        3.13196650      -3.87289846      -0.04320572       0.00634992      -0.00819253       0.00007960       0.00119272      -0.00758699       0.00036207
21
Lattice="1.0 0.0 0.0 0.0 1.0 0.0 0.0 0.0 1.0" Properties=species:S:1:pos:R:3:mp2_forces:R:3:forces:R:3 mp2_energy=-25669.004809123442 energy=-25674.08765359864 free_energy=-25674.08765359864 stress="4.520060543480894e-08 2.0588954506330414e-08 -1.2008046633586832e-09 2.0588954506330414e-08 -1.759145160922327e-08 1.4642192877880594e-09 -1.2008046633586832e-09 1.4642192877880594e-09 8.439598072078744e-10" pbc="F F F"
C        0.16345085      -0.27314296      -0.04387191       0.02520861      -0.02838867       0.00005940      -0.00086337      -0.00009749      -0.00591963
C        1.62313486       0.07586418       0.03691313      -0.03334038      -0.00005276       0.00015753      -0.00143663       0.00198585       0.00032456
H        2.16822568      -0.82518762       0.31711996      -0.02379320       0.02684727      -0.00003962      -0.00023994      -0.00016865      -0.00759953
F       -0.56690591       0.92735723      -0.36677931       0.00764467      -0.04609678       0.00057088      -0.00515124       0.00211232      -0.00257579
Cl       0.94417846      -3.43417494       0.20890408      -0.00303207       0.00327824       0.00000605      -0.00304431      -0.00454878      -0.00042943
H       -0.05716720      -0.99660081      -0.82125872       0.02531842       0.02018914       0.01193200       0.00458132       0.00225314      -0.00970675
H       -0.23657112      -0.62889830       0.90405866       0.02518310       0.02041626      -0.01261682      -0.00262767      -0.00724791      -0.00952398
H        1.79300924       0.85681629       0.78327262      -0.01807683      -0.00921250      -0.02739735      -0.00282247      -0.00603069       0.00880521
H        1.99136525       0.42675781      -0.92877944      -0.01896744      -0.00939623       0.02743771      -0.00092531       0.01234748       0.00432050
O       -2.81758460       2.43022871       0.33147143       0.01788502       0.00752596       0.00024092       0.00089948      -0.00195937      -0.01270663
H       -2.76765825       2.86701773      -0.51695992      -0.00005808      -0.00429745      -0.00004192       0.04939479       0.01528602      -0.00108805
H       -2.27615821       1.64408465       0.24101867      -0.01992517       0.01473028      -0.00017627       0.05322589       0.03080554       0.01759137
O        0.05419888       3.59100709      -0.22539397      -0.00762941      -0.01045076       0.00072020       0.00245335      -0.01805652       0.00011095
H       -0.07704364       3.53869605       0.72012394       0.00884785       0.01126170      -0.00104918      -0.02532040       0.00655106      -0.00204929
H        0.00786441       2.67708677      -0.51787938       0.00793100       0.02846349       0.00013742      -0.08383262      -0.01837067       0.00957730
O       -1.37956548      -5.72070789      -0.07058158       0.00087592      -0.00433965      -0.00013380      -0.00129878       0.01012433       0.00394074
H       -0.58391938      -6.25139690      -0.05268701      -0.01595972      -0.00288001       0.00008316      -0.01826960      -0.01795213      -0.00142881
H       -1.02993830      -4.82613498       0.00811475      -0.00237884      -0.01175777       0.00009761       0.03047115      -0.00034810       0.00623887
O        4.00938277      -4.38960758      -0.08714441       0.00214457       0.00063924      -0.00006669       0.00131809      -0.00165796       0.00013609
H        3.74944204      -5.30236353       0.02908322       0.01577206       0.00171354      -0.00000083       0.00300913      -0.00194155       0.00173274
H        3.17246594      -3.90895695      -0.02640887       0.00634992      -0.00819253       0.00007960       0.00047916      -0.00308591       0.00024954
21
Lattice="1.0 0.0 0.0 0.0 1.0 0.0 0.0 0.0 1.0" Properties=species:S:1:pos:R:3:mp2_forces:R:3:forces:R:3 mp2_energy=-25669.004809123442 energy=-25674.0833842685 free_energy=-25674.0833842685 stress="4.792164205253126e-08 2.4885764105848704e-08 -1.3485639729960247e-09 2.4885764105848704e-08 -1.9533937620460188e-08 1.6524836749893852e-09 -1.3485639729960247e-09 1.6524836749893852e-09 5.473132316824142e-10" pbc="F F F"
C        0.16184625      -0.27138677      -0.04148205       0.02520861      -0.02838867       0.00005940      -0.00074300      -0.00055381      -0.00588730
C        1.62228431       0.07487266       0.03722537      -0.03334038      -0.00005276       0.00015753      -0.00121702       0.00111316       0.00039068
H        2.16599272      -0.82681952       0.31817475      -0.02379320       0.02684727      -0.00003962      -0.00028464      -0.00119293      -0.00756007
F       -0.56669510       0.92984794      -0.36491460       0.00764467      -0.04609678       0.00057088      -0.00441137       0.00189872      -0.00264091
Cl       0.95526189      -3.43297880       0.21272268      -0.00303207       0.00327824       0.00000605      -0.00299299      -0.00448324       0.00021861
H       -0.06092361      -0.99522797      -0.81790491       0.02531842       0.02018914       0.01193200       0.00428244       0.00198000      -0.00974903
H       -0.23770690      -0.62488061       0.90750580       0.02518310       0.02041626      -0.01261682      -0.00271369      -0.00751404      -0.00945705
H        1.79430414       0.85688106       0.78206910      -0.01807683      -0.00921250      -0.02739735      -0.00254452      -0.00696565       0.00896206
H        1.99016740       0.42348082      -0.92945237      -0.01896744      -0.00939623       0.02743771      -0.00061953       0.01148147       0.00439380
O       -2.82129739       2.42927161       0.33187464       0.01788502       0.00752596       0.00024092       0.00438645       0.00148251      -0.01185174
H       -2.77050543       2.86666528      -0.51615167      -0.00005808      -0.00429745      -0.00004192       0.04912935       0.01527169      -0.00220656
H       -2.28151851       1.64208642       0.24099681      -0.01992517       0.01473028      -0.00017627       0.05175409       0.03075844       0.01731170
O        0.05700372       3.59279190      -0.22698720      -0.00762941      -0.01045076       0.00072020       0.00052494      -0.01676524       0.00072611
H       -0.07412342       3.53763220       0.71837869       0.00884785       0.01126170      -0.00104918      -0.02686289       0.00521623      -0.00152414
H        0.01605389       2.67932664      -0.52133064       0.00793100       0.02846349       0.00013742      -0.08507950      -0.01691199       0.00848459
O       -1.37781098      -5.73895558      -0.07421763       0.00087592      -0.00433965      -0.00013380      -0.00126002       0.00948267       0.00343011
H       -0.55417629      -6.22497679      -0.04974368      -0.01595972      -0.00288001       0.00008316      -0.01499988      -0.01772276      -0.00103791
H       -1.07848273      -4.82716543       0.00216545      -0.00237884      -0.01175777       0.00009761       0.02997090       0.00165996       0.00637111
O        4.01349590      -4.39366060      -0.08902140       0.00214457       0.00063924      -0.00006669       0.00075407      -0.00191011      -0.00038809
H        3.75427397      -5.30628508       0.02989936       0.01577206       0.00171354      -0.00000083       0.00337418      -0.00236167       0.00191485
H        3.17676247      -3.91277536      -0.02747057       0.00634992      -0.00819253       0.00007960      -0.00044738      -0.00396343       0.00009920
21
Lattice="1.0 0.0 0.0 0.0 1.0 0.0 0.0 0.0 1.0" Properties=species:S:1:pos:R:3:mp2_forces:R:3:forces:R:3 mp2_energy=-25669.004809123442 energy=-25674.077418438148 free_energy=-25674.077418438148 stress="4.908544086287107e-08 3.1716165090546426e-08 -1.529748939633188e-09 3.1716165090546426e-08 -2.2593020590742353e-08 2.0279766015929087e-09 -1.529748939633188e-09 2.0279766015929087e-09 -9.962824004843227e-11" pbc="F F F"
C        0.15941884      -0.26921747      -0.03821981       0.02520861      -0.02838867       0.00005940      -0.00038195      -0.00145981      -0.00582566
C        1.62058713       0.07439154       0.03810254      -0.03334038      -0.00005276       0.00015753      -0.00075265      -0.00022770       0.00048548
H        2.16307686      -0.82760508       0.32052288      -0.02379320       0.02684727      -0.00003962      -0.00000594      -0.00264186      -0.00750729
F       -0.56728700       0.93245108      -0.36243048       0.00764467      -0.04609678       0.00057088      -0.00316614       0.00121058      -0.00276004
Cl       0.97181461      -3.43078512       0.21722220      -0.00303207       0.00327824       0.00000605      -0.00055140      -0.00417954       0.00211896
H       -0.06554483      -0.99372058      -0.81340609       0.02531842       0.02018914       0.01193200       0.00406758       0.00130135      -0.00977492
H       -0.23949226      -0.62006570       0.91203573       0.02518310       0.02041626      -0.01261682      -0.00264411      -0.00809407      -0.00932276
H        1.79460807       0.85827569       0.78063871      -0.01807683      -0.00921250      -0.02739735      -0.00217834      -0.00831163       0.00916659
H        1.98808416       0.41993258      -0.92986493      -0.01896744      -0.00939623       0.02743771      -0.00012370       0.01021768       0.00448843
O       -2.82829537       2.42630099       0.33255168       0.01788502       0.00752596       0.00024092       0.01110740       0.00795715      -0.01002492
H       -2.77578765       2.86509893      -0.51456827      -0.00005808      -0.00429745      -0.00004192       0.04865431       0.01505113      -0.00423707
H       -2.29188189       1.63700605       0.24061375      -0.01992517       0.01473028      -0.00017627       0.04871369       0.03044021       0.01704848
O        0.06348013       3.59517175      -0.22967489      -0.00762941      -0.01045076       0.00072020      -0.00375117      -0.01429234       0.00184942
H       -0.06671054       3.53668294       0.71560240       0.00884785       0.01126170      -0.00104918      -0.03021373       0.00216193      -0.00061495
H        0.03171915       2.68222218      -0.52603587       0.00793100       0.02846349       0.00013742      -0.08592548      -0.01396355       0.00605127
O       -1.37513920      -5.76294301      -0.07820801       0.00087592      -0.00433965      -0.00013380      -0.00086373       0.00590755       0.00261773
H       -0.51832941      -6.18747578      -0.04532188      -0.01595972      -0.00288001       0.00008316      -0.00767449      -0.01302999       0.00006055
H       -1.14594409      -4.83189533      -0.00668472      -0.00237884      -0.01175777       0.00009761       0.02124377       0.00311733       0.00558111
O        4.02056362      -4.39898085      -0.09157426       0.00214457       0.00063924      -0.00006669       0.00079490      -0.00271993      -0.00135900
H        3.76025675      -5.31090183       0.03043330       0.01577206       0.00171354      -0.00000083       0.00428234      -0.00325731       0.00216307
H        3.18500921      -3.91619896      -0.02939804       0.00634992      -0.00819253       0.00007960      -0.00063117      -0.00518717      -0.00020448
21
Lattice="1.0 0.0 0.0 0.0 1.0 0.0 0.0 0.0 1.0" Properties=species:S:1:pos:R:3:mp2_forces:R:3:forces:R:3 mp2_energy=-25669.004809123442 energy=-25674.070210598074 free_energy=-25674.070210598074 stress="5.010753215452565e-08 4.0653444985589025e-08 -1.7438816968959317e-09 4.0653444985589025e-08 -2.6706345156671603e-08 2.6906016647266376e-09 -1.7438816968959317e-09 2.6906016647266376e-09 -1.2819940470681279e-09" pbc="F F F"
C        0.15619598      -0.26653854      -0.03391269       0.02520861      -0.02838867       0.00005940       0.00035981      -0.00302403      -0.00559945
C        1.61798144       0.07491773       0.03955825      -0.03334038      -0.00005276       0.00015753      -0.00001775      -0.00176867       0.00055547
H        2.15967618      -0.82662514       0.32491431      -0.02379320       0.02684727      -0.00003962       0.00096804      -0.00402187      -0.00754027
F       -0.56894705       0.93495614      -0.35942963       0.00764467      -0.04609678       0.00057088      -0.00138174      -0.00038686      -0.00249638
Cl       0.99108698      -3.42720165       0.22209079      -0.00303207       0.00327824       0.00000605       0.00220493      -0.00370428       0.00498791
H       -0.07083658      -0.99237724      -0.80725752       0.02531842       0.02018914       0.01193200       0.00405774       0.00008851      -0.00972063
H       -0.24173702      -0.61424778       0.91791329       0.02518310       0.02041626      -0.01261682      -0.00212949      -0.00927099      -0.00894977
H        1.79363250       0.86210854       0.77836619      -0.01807683      -0.00921250      -0.02739735      -0.00188758      -0.00975072       0.00939469
H        1.98508481       0.41594263      -0.93021737      -0.01896744      -0.00939623       0.02743771       0.00043639       0.00895208       0.00453310
O       -2.84189580       2.41883171       0.33357229       0.01788502       0.00752596       0.00024092       0.02405159       0.01943904      -0.00627427
H       -2.78670737       2.86145338      -0.51127197      -0.00005808      -0.00429745      -0.00004192       0.04712495       0.01428484      -0.00784324
H       -2.30885502       1.62761676       0.23937264      -0.01992517       0.01473028      -0.00017627       0.04283512       0.02925577       0.01624277
O        0.07729228       3.59793253      -0.23372196      -0.00762941      -0.01045076       0.00072020      -0.01560314      -0.01050115       0.00327868
H       -0.05249918       3.53643265       0.71137183       0.00884785       0.01126170      -0.00104918      -0.03547922      -0.00421948       0.00102362
H        0.05909424       2.68557885      -0.53192307       0.00793100       0.02846349       0.00013742      -0.08143408      -0.00943045       0.00192333
O       -1.37100549      -5.78974550      -0.08221930       0.00087592      -0.00433965      -0.00013380       0.00039720       0.00114928       0.00186046
H       -0.48156766      -6.14031540      -0.04011118      -0.01595972      -0.00288001       0.00008316       0.00038527      -0.00504440       0.00163015
H       -1.22659746      -4.84244352      -0.01846161      -0.00237884      -0.01175777       0.00009761       0.00833787       0.00252288       0.00380440
O        4.03064440      -4.40506411      -0.09453931       0.00214457       0.00063924      -0.00006669       0.00138346      -0.00387942      -0.00261805
H        3.76642147      -5.31548636       0.03031447       0.01577206       0.00171354      -0.00000083       0.00537560      -0.00436234       0.00244598
H        3.19774464      -3.91798167      -0.03207254       0.00634992      -0.00819253       0.00007960       0.00001503      -0.00632777      -0.00063854
21
Lattice="1.0 0.0 0.0 0.0 1.0 0.0 0.0 0.0 1.0" Properties=species:S:1:pos:R:3:mp2_forces:R:3:forces:R:3 mp2_energy=-25669.004809123442 energy=-25674.061639141037 free_energy=-25674.061639141037 stress="5.3551899650968305e-08 4.8265716485004474e-08 -2.5471942077787915e-09 4.8265716485004474e-08 -2.9734672540628287e-08 3.333372849126612e-09 -2.5471942077787915e-09 3.333372849126612e-09 -2.9540965088969227e-09" pbc="F F F"
C        0.15289053      -0.26304703      -0.02922522       0.02520861      -0.02838867       0.00005940       0.00115689      -0.00465640      -0.00504296
C        1.61514057       0.07694857       0.04111826      -0.03334038      -0.00005276       0.00015753       0.00054938      -0.00257301       0.00052392
H        2.15648709      -0.82340440       0.33066904      -0.02379320       0.02684727      -0.00003962       0.00224524      -0.00435814      -0.00786664
F       -0.57135982       0.93775568      -0.35633663       0.00764467      -0.04609678       0.00057088       0.00042748      -0.00246790      -0.00117996
Cl       1.00836368      -3.42125822       0.22722599      -0.00303207       0.00327824       0.00000605       0.00430159      -0.00236379       0.00761007
H       -0.07582273      -0.99089076      -0.80018530       0.02531842       0.02018914       0.01193200       0.00396161      -0.00079399      -0.00964592
H       -0.24362822      -0.60760693       0.92430898       0.02518310       0.02041626      -0.01261682      -0.00126476      -0.01052376      -0.00813222
H        1.79202138       0.86855624       0.77502373      -0.01807683      -0.00921250      -0.02739735      -0.00194110      -0.01042824       0.00962268
H        1.98188264       0.41232093      -0.93083558      -0.01896744      -0.00939623       0.02743771       0.00052927       0.00867335       0.00445242
O       -2.86717978       2.40278777       0.33405511       0.01788502       0.00752596       0.00024092       0.04543640       0.03614205       0.00009811
H       -2.80630740       2.85531984      -0.50503445      -0.00005808      -0.00429745      -0.00004192       0.04299605       0.01216129      -0.01365783
H       -2.32991227       1.61490323       0.23717373      -0.01992517       0.01473028      -0.00017627       0.03350329       0.02577293       0.01308759
O        0.10474684       3.60011852      -0.23847135      -0.00762941      -0.01045076       0.00072020      -0.04230403      -0.00731712       0.00381702
H       -0.03171040       3.53822589       0.70558673       0.00884785       0.01126170      -0.00104918      -0.03825255      -0.01385028       0.00406700
H        0.09661750       2.68835171      -0.53769231       0.00793100       0.02846349       0.00013742      -0.06470286      -0.00557245      -0.00195648
O       -1.36668210      -5.81374570      -0.08592917       0.00087592      -0.00433965      -0.00013380       0.00165260      -0.00241556       0.00139085
H       -0.45254497      -6.09305327      -0.03570514      -0.01595972      -0.00288001       0.00008316       0.00434321       0.00164648       0.00294541
H       -1.30348179      -4.85794308      -0.03091329      -0.00237884      -0.01175777       0.00009761      -0.00173545      -0.00060174       0.00186847
O        4.04138032      -4.41042068      -0.09736120       0.00214457       0.00063924      -0.00006669       0.00210432      -0.00478487      -0.00372222
H        3.77108523      -5.31880826       0.02939502       0.01577206       0.00171354      -0.00000083       0.00586201      -0.00501323       0.00270673
H        3.21222001      -3.91736602      -0.03453101       0.00634992      -0.00819253       0.00007960       0.00113143      -0.00667563      -0.00098604
21
Lattice="1.0 0.0 0.0 0.0 1.0 0.0 0.0 0.0 1.0" Properties=species:S:1:pos:R:3:mp2_forces:R:3:forces:R:3 mp2_energy=-25669.004809123442 energy=-25674.054474047185 free_energy=-25674.054474047185 stress="5.37458783900342e-08 4.7792384917853e-08 -3.1296898744179177e-09 4.7792384917853e-08 -2.6811431232615337e-08 3.738748621652673e-09 -3.1296898744179177e-09 3.738748621652673e-09 -3.9672518888278274e-09" pbc="F F F"
C        0.15017954      -0.25986082      -0.02623399       0.02520861      -0.02838867       0.00005940       0.00115996      -0.00464935      -0.00455075
C        1.61281735       0.07892380       0.04175609      -0.03334038      -0.00005276       0.00015753       0.00040224      -0.00226604       0.00053710
H        2.15419875      -0.82165073       0.33044163      -0.02379320       0.02684727      -0.00003962       0.00240262      -0.00379046      -0.00775681
F       -0.57389971       0.94136289      -0.35104236       0.00764467      -0.04609678       0.00057088       0.00105433      -0.00259390       0.00066026
Cl       1.01548145      -3.41790879       0.22892976      -0.00303207       0.00327824       0.00000605       0.00501113      -0.00160729       0.00820729
H       -0.08014101      -0.98737868      -0.79705938       0.02531842       0.02018914       0.01193200       0.00327821       0.00014272      -0.00984001
H       -0.24450369      -0.60486619       0.92784198       0.02518310       0.02041626      -0.01261682      -0.00102387      -0.01061974      -0.00754650
H        1.79129273       0.87074652       0.77505445      -0.01807683      -0.00921250      -0.02739735      -0.00209630      -0.00985257       0.00956329
H        1.97834953       0.41416657      -0.93076155      -0.01896744      -0.00939623       0.02743771       0.00033134       0.00897106       0.00437316
O       -2.89519817       2.38610754       0.33112776       0.01788502       0.00752596       0.00024092       0.05645567       0.04436091       0.00479092
H       -2.81977463       2.85086946      -0.50009992      -0.00005808      -0.00429745      -0.00004192       0.03716180       0.00876630      -0.01737899
H       -2.34656107       1.60583538       0.23707285      -0.01992517       0.01473028      -0.00017627       0.02482348       0.02079077       0.01004222
O        0.13443602       3.60231403      -0.24146372      -0.00762941      -0.01045076       0.00072020      -0.05881605      -0.00604733       0.00311405
H       -0.01452743       3.54164507       0.70081069       0.00884785       0.01126170      -0.00104918      -0.03435720      -0.01974500       0.00615404
H        0.12411880       2.69103603      -0.54148579       0.00793100       0.02846349       0.00013742      -0.04704994      -0.00426496      -0.00376423
O       -1.36493916      -5.82402641      -0.08711930       0.00087592      -0.00433965      -0.00013380       0.00253855      -0.00304828       0.00131433
H       -0.44204573      -6.07251361      -0.03315477      -0.01595972      -0.00288001       0.00008316       0.00454457       0.00365695       0.00337063
H       -1.33642270      -4.86664209      -0.03690318      -0.00237884      -0.01175777       0.00009761      -0.00498383      -0.00256889       0.00105406
O        4.04694820      -4.41227197      -0.09878222       0.00214457       0.00063924      -0.00006669       0.00236075      -0.00504389      -0.00405992
H        3.77574762      -5.32023134       0.02909671       0.01577206       0.00171354      -0.00000083       0.00474047      -0.00481716       0.00291511
H        3.21864960      -3.91791262      -0.03568980       0.00634992      -0.00819253       0.00007960       0.00206208      -0.00577386      -0.00119927
21
Lattice="1.0 0.0 0.0 0.0 1.0 0.0 0.0 0.0 1.0" Properties=species:S:1:pos:R:3:mp2_forces:R:3:forces:R:3 mp2_energy=-25669.004809123442 energy=-25674.05308969299 free_energy=-25674.05308969299 stress="5.4248440243143565e-08 4.527427208373365e-08 -2.867638636291724e-09 4.527427208373365e-08 -2.1880626790957813e-08 3.946509022859401e-09 -2.867638636291724e-09 3.946509022859401e-09 -4.2489978515912985e-09" pbc="F F F"
C        0.14786346      -0.25848643      -0.02547263       0.02520861      -0.02838867       0.00005940       0.00091871      -0.00411658      -0.00447084
C        1.61085491       0.07891542       0.04175480      -0.03334038      -0.00005276       0.00015753       0.00019596      -0.00206513       0.00066548
H        2.15214463      -0.82376668       0.32403845      -0.02379320       0.02684727      -0.00003962       0.00200503      -0.00358812      -0.00725829
F       -0.57597900       0.94472079      -0.34354300       0.00764467      -0.04609678       0.00057088       0.00106438      -0.00183280       0.00150660
Cl       1.01255145      -3.42064069       0.22365740      -0.00303207       0.00327824       0.00000605       0.00458363      -0.00132983       0.00736682
H       -0.08419794      -0.98232402      -0.79932071       0.02531842       0.02018914       0.01193200       0.00277404       0.00112982      -0.01009188
H       -0.24539373      -0.60777561       0.92759217       0.02518310       0.02041626      -0.01261682      -0.00131205      -0.01029240      -0.00757358
H        1.79127961       0.86595400       0.77967649      -0.01807683      -0.00921250      -0.02739735      -0.00210727      -0.00946384       0.00944399
H        1.97481188       0.42012451      -0.92929042      -0.01896744      -0.00939623       0.02743771       0.00050226       0.00874107       0.00449708
O       -2.90467502       2.38355383       0.32666033       0.01788502       0.00752596       0.00024092       0.05702862       0.04452529       0.00625836
H       -2.81227771       2.85064454      -0.50155979      -0.00005808      -0.00429745      -0.00004192       0.03633213       0.00704167      -0.01829609
H       -2.35467298       1.60328828       0.24088940      -0.01992517       0.01473028      -0.00017627       0.02239668       0.01870830       0.01008758
O        0.14070971       3.60453443      -0.24235469      -0.00762941      -0.01045076       0.00072020      -0.05987763      -0.00626717       0.00284098
H       -0.00906945       3.54163926       0.69970376       0.00884785       0.01126170      -0.00104918      -0.03280615      -0.02163896       0.00636825
H        0.13021923       2.69393952      -0.54420477       0.00793100       0.02846349       0.00013742      -0.04266255      -0.00416319      -0.00513783
O       -1.36592900      -5.81936538      -0.08494965       0.00087592      -0.00433965      -0.00013380       0.00263739      -0.00225384       0.00140798
H       -0.44743941      -6.08375728      -0.03226556      -0.01595972      -0.00288001       0.00008316       0.00416258       0.00295996       0.00310243
H       -1.31940870      -4.86250460      -0.03467054      -0.00237884      -0.01175777       0.00009761      -0.00336162      -0.00190218       0.00133563
O        4.04682395      -4.41087679      -0.09799533       0.00214457       0.00063924      -0.00006669       0.00198357      -0.00479834      -0.00379241
H        3.77975105      -5.32000287       0.03022369       0.01577206       0.00171354      -0.00000083       0.00359046      -0.00437828       0.00296313
H        3.21623935      -3.92007022      -0.03623348       0.00634992      -0.00819253       0.00007960       0.00195183      -0.00501546      -0.00122340
21
Lattice="1.0 0.0 0.0 0.0 1.0 0.0 0.0 0.0 1.0" Properties=species:S:1:pos:R:3:mp2_forces:R:3:forces:R:3 mp2_energy=-25669.004809123442 energy=-25674.047490501624 free_energy=-25674.047490501624 stress="4.470131965989405e-08 3.7768275480873385e-08 -2.2999920666739994e-09 3.7768275480873385e-08 -1.5770617077248538e-08 4.7386927149361504e-09 -2.2999920666739994e-09 4.7386927149361504e-09 -4.285841185879271e-09" pbc="F F F"
C        0.14402465      -0.25470085      -0.02250224       0.02520861      -0.02838867       0.00005940       0.00035386      -0.00271874      -0.00399532