21
Properties=species:S:1:pos:R:3:forces:R:3 MeOH_NucSubs=T 5000=T 80.00=T 90.00=T energy=-21772.07429127416 stress="0.0 0.0 0.0 0.0 0.0 0.0 0.0 0.0 0.0" free_energy=-21772.07429127416 pbc="F F F"
N       39.05767809      40.70979914      41.26631715      -0.00054717      -0.00144645      -0.00091351
C       39.02714894      39.63273973      42.07953881       0.00034073      -0.00026807      -0.00096804
C       40.14427319      38.86451590      42.38112380      -0.00012656      -0.00044805       0.00001457
C       41.37387077      39.22898705      41.81274004       0.00083082       0.00087222      -0.00022868
C       41.42768640      40.33763865      40.98167359       0.00013764      -0.00003463       0.00113666
C       40.23240008      41.03896865      40.73998909       0.00058245      -0.00035683      -0.00051381
H       38.05234709      39.39170257      42.49766528      -0.00005924      -0.00109333      -0.00177703
H       40.05595993      38.00366440      43.03499833       0.00037869       0.00061442       0.00043844
H       42.27357504      38.65617095      42.01969256       0.00019922      -0.00001037       0.00008828
H       42.34706437      40.67585320      40.51544470       0.00090848       0.00135246       0.00141657
S       38.66403984      39.09433996      37.77249583       0.00004222      -0.00367218       0.00104809
C       40.42487889      39.51650225      37.65066283      -0.00084055      -0.00048129       0.00074441
H       40.72234811      39.32061514      36.62093742      -0.00088295       0.00097600       0.00065716
H       40.60145688      40.56639912      37.87469281      -0.00207926      -0.00044945       0.00108640
H       41.02736657      38.89447575      38.31054654       0.00097581       0.00045317      -0.00037651
C       39.09442665      42.80546860      39.66607779       0.00064513       0.00001947      -0.00014220
O       40.31768669      42.10321714      39.91251058       0.00019544       0.00007386       0.00026431
H       39.37422380      43.63260347      39.01749618       0.00084874       0.00023407      -0.00016848
H       38.36786608      42.16173895      39.16848621       0.00057471      -0.00001028      -0.00018569
H       38.66430251      43.17576973      40.59714423       0.00060890      -0.00011208      -0.00002421
H       38.50355004      39.47303973      39.05137622      -0.00273325       0.00378735      -0.00159674
