(written by ASE)

21 atoms
5 atom types

0.0                      10  xlo xhi
0.0                      10  ylo yhi
0.0                      10  zlo zhi

Masses

     1      12.010999996910238 # C
     2      1.0079999997406976 # H
     3      14.006999996396779 # N
     4      15.998999995884349 # O
     5      32.059999991752747 # S

Atoms # full

     1   0   3   0.0      3.6905273550000075      2.9903462149999953      5.5852791599999989
     2   0   1   0.0      3.7934552750000066      3.1704640049999995      6.9104364200000035
     3   0   1   0.0      5.0051175250000028      3.3685456049999942      7.5759811200000016
     4   0   1   0.0      6.1778157450000037      3.3646146249999944              6.81892706
     5   0   1   0.0      6.0941450950000018      3.1511529349999989      5.4444205799999992
     6   0   1   0.0      4.8270535950000024      2.9771998249999996      4.8698383099999987
     7   0   2   0.0       2.852803245000004      3.1544355449999983      7.4573458099999996
     8   0   2   0.0      5.0228795050000059      3.5266513149999952      8.6497883800000039
     9   0   2   0.0      7.1471967550000031      3.5061535549999974      7.2896531200000041
    10   0   2   0.0      6.9928182550000031      3.1076105349999992      4.8401537900000022
    11   0   5   0.0      4.5579851350000027      2.6602219549999973      3.1534067199999996
    12   0   1   0.0       6.066213525000002      3.3403987849999979      2.4307728200000014
    13   0   2   0.0      5.9201678150000063      3.3194130749999999      1.3502116200000032
    14   0   2   0.0      6.2030143050000035      4.3729811649999988      2.7489232699999988
    15   0   2   0.0      6.9452976750000062      2.7389987449999964       2.662344779999998
    16   0   1   0.0       4.320812195000002      6.4441831749999992      5.1688870899999984
    17   0   4   0.0      4.4990942550000028      5.9210169649999997      3.8644568699999979
    18   0   2   0.0      3.2792427750000073      6.7244709450000002      5.3599533800000003
    19   0   2   0.0      4.6432892850000016      5.7335485049999946      5.9350407200000035
    20   0   2   0.0      4.9374604450000064      7.3397780449999956      5.2360384300000007
    21   0   2   0.0      3.9081527650000041      5.1707110449999973      3.7606777000000022
