14
Properties=species:S:1:pos:R:3:mp2_forces:R:3:forces:R:3 R1=NO2 R2=NH2 R3=H R4=CN lg=Br nu=Cl rxn-id=1108 mp2_energy=-94236.46704708227 energy=-94235.16873183515 free_energy=-94236.46704907104 pbc="F F F"
C        1.12371764      -0.07076485      -0.03374521       0.02510408       0.00820851       0.00203247      -0.01433655      -0.00144521       0.00201301
C        1.08078713       1.44911820      -0.01787182       0.01487473      -0.02018547      -0.00658985       0.00048492      -0.00010483       0.00421911
H        2.05053510       1.80175483       0.33123079       0.00285159      -0.03621305      -0.03194252      -0.00083694       0.00744026      -0.00114513
Br      -1.35280006      -0.23805183       0.11506503      -0.00324141       0.03671925      -0.01890430      -0.00846780      -0.00161285      -0.00234871
Cl       3.44753457      -0.06591579      -0.53133792       0.03315947       0.03051262       0.08859251       0.02497463       0.00211138      -0.00410930
H        0.32671578       1.73917755       0.71332901       0.00316132      -0.03595727      -0.01608700       0.00347214       0.01256894       0.00188488
N        1.00765341      -0.89256033      -1.31171299       0.02106494      -0.02683282       0.03512517       0.00232831      -0.00314097      -0.00416887
O        0.87238593      -0.29470124      -2.36587065      -0.02568022       0.00939527      -0.01992728      -0.00329006      -0.00738562      -0.00585963
O        1.06399495      -2.10422988      -1.16132638      -0.06305001       0.02392772      -0.00729589       0.00842521      -0.00257276      -0.00189397
N        1.33794758      -0.72210209       1.19393485       0.02342202       0.01132323      -0.00032040      -0.00175458      -0.00475529      -0.00334364
H        2.16644250      -1.29693109       1.12449391       0.03219887      -0.00914810       0.00498736      -0.00524564      -0.01025332      -0.00533617
H        0.53066635      -1.28205208       1.43098286      -0.00462828       0.01859007      -0.04507550      -0.00270471       0.00488048       0.01645060
C        0.77494488       2.14002645      -1.26418820      -0.04683168       0.04213998      -0.06252536      -0.00375460       0.00944325      -0.01161590
N        0.54069775       2.82421220      -2.18854375      -0.01240543      -0.05247993       0.07793061       0.00070567      -0.00517347       0.01525374
13
Properties=species:S:1:pos:R:3:mp2_forces:R:3:forces:R:3 R1=NO2 R2=H R3=CN R4=CN lg=Cl nu=Cl rxn-id=918 mp2_energy=-37735.580111661155 energy=-37734.496862078064 free_energy=-37735.580121463325 pbc="F F F"
C        0.92084030      -0.09460597       0.05470319       0.00778271       0.00801855      -0.03515310       0.00019295      -0.00129809       0.00329573
C        1.06131289       1.42048981      -0.03643065       0.02971601       0.01946260       0.02386053       0.00226067       0.00095588      -0.00228313
H        2.11531579       1.64931555      -0.21763232       0.00913057       0.06561446      -0.01383129       0.00199168       0.00615426      -0.00137459
Cl      -1.35476367      -0.05503708      -0.34788528      -0.02456139      -0.02339000       0.02962216       0.00692423       0.00357979      -0.00746627
Cl       2.98498433      -0.41246823       0.83281911       0.02411526       0.03164376       0.02875614      -0.00070203       0.00544785      -0.00902503
H        0.58026603      -0.64394078       0.90837448      -0.01837047      -0.03895568       0.01579788      -0.00011457      -0.00079361       0.00732724
N        1.18271404      -0.85130570      -1.17993609       0.00127758      -0.01553791       0.00521980      -0.00117153      -0.00622682       0.00252249
O        1.59332248      -0.20014878      -2.13827005      -0.02695938       0.00412353      -0.01496551      -0.00849255      -0.01271800      -0.00737307
O        1.00522390      -2.05970284      -1.14259754      -0.04324858       0.01801665      -0.02795711       0.00456178      -0.00399053       0.01127906
C        0.70529433       1.99550731       1.26315953       0.03448778      -0.05706379      -0.03360899      -0.00107871      -0.00358482      -0.00121387
N        0.45108086       2.47723722       2.30255935      -0.04012469       0.02337451       0.01229725      -0.00788819      -0.00920994      -0.00013457
C        0.31377540       2.10101122      -1.10264865      -0.00139840       0.03061029      -0.02685421       0.00219886       0.00827757      -0.00001054
N       -0.12579230       2.80048653      -1.93731427       0.04815299      -0.06591696       0.03681645       0.00131741       0.01340648       0.00445654
19
Properties=species:S:1:pos:R:3:mp2_forces:R:3:forces:R:3 R1=CH3 R2=CH3 R3=NH2 R4=NO2 lg=Br nu=Br rxn-id=2285 mp2_energy=-151367.59022929455 energy=-151366.1794552646 free_energy=-151367.59022929455 pbc="F F F"
C        1.28140969      -0.10758852      -0.03081066      -0.04113694      -0.07061562       0.00479059      -0.01118138      -0.00150271      -0.00105965
C        1.52034054       1.38388396       0.02638429      -0.04215996       0.05084858      -0.06888362      -0.00082989      -0.00377034      -0.00029757
H        2.61407525       1.49407319      -0.05172768      -0.07479598       0.02832276       0.00040543       0.00061751      -0.01371870       0.00368873
Br      -2.09648969       0.57685791       0.69079418       0.02055123       0.07224414      -0.02575087      -0.00406697       0.00205009       0.02478370
Br       4.64324851      -0.26386246      -0.01043238      -0.00071101       0.07831591      -0.02288791       0.01044503       0.02694237       0.00825436
C        1.16816677      -0.87995940      -1.29086042      -0.01956144       0.01734206       0.04693915      -0.00719542       0.00095957      -0.00279769
H        0.14552811      -0.77288987      -1.67468072       0.01299824       0.02201452       0.05583096      -0.00242334       0.00649415      -0.01196056
H        1.87045336      -0.52667437      -2.04189567      -0.03213691      -0.01885579       0.01295279       0.00089916      -0.00067933       0.00443178
H        1.34917871      -1.93417680      -1.07987840       0.02585616       0.00225861      -0.02550218      -0.01418196      -0.00051182      -0.00428056
C        1.18099890      -0.84482921       1.25243193      -0.01822516      -0.01751005      -0.00710054      -0.00151873      -0.00204222      -0.00093490
H        1.83436165      -1.71918811       1.20340831      -0.00948129      -0.00163067       0.04142626       0.00008088       0.00069444      -0.00526915
H        1.45460559      -0.22240107       2.09883261       0.06580047      -0.00963452       0.02083714       0.00264317      -0.00188495      -0.00274994
H        0.13675185      -1.15973327       1.36405849      -0.01936408      -0.02643663      -0.00803684       0.00146814      -0.00502839       0.00673129
N        0.98983802       1.96179369       1.19630439      -0.02361498      -0.05219590       0.04085009      -0.00145312       0.00010223      -0.00267907
H       -0.01462912       1.76974166       1.24805358       0.02867702      -0.00916813      -0.02620922      -0.00186342       0.00237141      -0.00228199
H        1.15010919       2.95880485       1.20773987       0.03234060      -0.02319130      -0.00691070       0.00135891      -0.00042270      -0.00381449
N        1.02213675       2.07819572      -1.27477134       0.04620204       0.03710570      -0.02708075       0.00794523      -0.00299953      -0.00255052
O        0.20403974       2.98179101      -1.14685911      -0.00345008      -0.05207837       0.03999998      -0.00282769      -0.01168589      -0.00895650
O        1.53722715       1.73105648      -2.33378425       0.05221217      -0.02713530      -0.04566977       0.02208390       0.00463232       0.00174273
15
Properties=species:S:1:pos:R:3:mp2_forces:R:3:forces:R:3 R1=NO2 R2=H R3=CH3 R4=CN lg=Br nu=Cl rxn-id=946 mp2_energy=-93799.9579575287 energy=-93799.0665513635 free_energy=-93799.95795001902 pbc="F F F"
C        0.83795077      -0.03378548       0.02107757       0.00349967      -0.01482355       0.00479280       0.00042759       0.00127584      -0.00110944
C        0.89875423       1.47936992      -0.06368778       0.00719126      -0.01441776      -0.00539729       0.00034831       0.00179508      -0.00227085
H        1.93833993       1.74402476      -0.26967863       0.01151368      -0.03408870       0.00648714       0.00025425       0.00345216      -0.00125376
Br      -1.61187141      -0.24072325      -0.33302597      -0.01278391       0.03414022       0.00116303       0.00468661       0.00254574      -0.00695915
Cl       2.94355164      -0.25954561       0.85039044      -0.01276614       0.02649639       0.06649492      -0.00022540       0.00269144      -0.00209494
H        0.54552249      -0.60323197       0.87967214       0.05415168      -0.00075541      -0.00676881       0.00029202       0.00394339       0.00054894
N        1.15797647      -0.81213217      -1.18737286       0.02302002       0.00049057       0.01051354      -0.00103780      -0.00475552       0.00263296
O        1.53387028      -0.16756288      -2.16559830      -0.01237964      -0.00350629      -0.03010766      -0.01314720      -0.00922616      -0.00443963
O        1.05987041      -2.03010241      -1.11863473      -0.02052668      -0.00359350      -0.03959374       0.00816725      -0.00474181       0.01188855
C        0.49629184       2.07226914       1.28844097       0.00004229       0.00650586      -0.01311445      -0.00072552      -0.00211070      -0.00052180
H       -0.54074673       1.81630679       1.50748290      -0.00073448       0.02052751      -0.00546954       0.00018231      -0.00594472      -0.00085241
H        1.15224239       1.66972344       2.06179973      -0.00489545      -0.00571474      -0.02221676       0.00089501      -0.00358585      -0.00279420
H        0.59973044       3.15885830       1.26410743       0.01656477       0.00708620       0.04442392      -0.00433181      -0.00169178       0.00432196
C        0.12540790       2.09950069      -1.14569223      -0.03860358       0.01838442      -0.04917023       0.00116044       0.00444733       0.00021678
N       -0.38096316       2.77148889      -1.96587532      -0.01329349      -0.03673122       0.03796313       0.00305394       0.01190557       0.00268701
17
Properties=species:S:1:pos:R:3:mp2_forces:R:3:forces:R:3 R1=H R2=CH3 R3=CH3 R4=NH2 lg=Br nu=Cl rxn-id=669 mp2_energy=-88308.19840736475 energy=-88307.35282703828 free_energy=-88308.19840605545 pbc="F F F"
C        0.87308901       0.01107153       0.04407050       0.00264404      -0.02546440      -0.00140422      -0.00104138      -0.00548938      -0.00969445
C        0.95588529       1.51716353       0.03721633       0.02720807      -0.00295906       0.01093284      -0.00055605       0.00116247       0.00036295
H        2.02863223       1.72451362       0.04351166       0.02109353       0.05716342      -0.03774306      -0.00032754       0.00279807      -0.00062700
Br      -1.68401352      -0.21013119      -0.08206694       0.00659148       0.01885043       0.03958424       0.00329122       0.00215992       0.00065775
Cl       3.22381750      -0.45163261      -0.59014162       0.03045460       0.04993148       0.02915920      -0.00314970       0.00072810       0.00307087
H        0.77473860      -0.48847937      -0.89970232      -0.04022148       0.01630309      -0.05637411      -0.00036673       0.00327280       0.00437584
C        1.01890874      -0.73897928       1.33551956      -0.01479141      -0.00104772       0.03845712      -0.00043981      -0.00002313       0.00344995
H        1.95237788      -0.44761691       1.81880906       0.00555905      -0.03843515      -0.03047418      -0.00423384       0.00068453       0.00319524
H        0.18594285      -0.52158821       2.00273687      -0.05015182       0.03085756       0.03172617      -0.00274726      -0.00709769      -0.00272006
H        1.05293331      -1.80998466       1.14541455      -0.01222207       0.00962019      -0.00293191       0.00489475      -0.00031204      -0.00041282
C        0.36368779       2.17253414       1.29144392       0.00707383       0.00209040      -0.00736878       0.00239885       0.00109969      -0.00053116
H       -0.70587739       1.97262381       1.36663189      -0.00149967      -0.06807950      -0.03642497       0.00095930       0.00078170       0.00128711
H        0.85717046       1.82793157       2.20496138      -0.01136181      -0.04901491      -0.01997515       0.00249793       0.00042623      -0.00084641
H        0.51793772       3.25492156       1.22290981       0.01168598       0.01492150      -0.04685483       0.00121715       0.00053706      -0.00144908
N        0.42926749       2.03256539      -1.22191038       0.00217547      -0.01226410       0.03619210       0.00091701       0.00150962      -0.00044373
H        0.53846470       3.04067914      -1.23391780       0.02492597      -0.01756237      -0.02154599      -0.00111192      -0.00082929      -0.00054245
H       -0.56361198       1.81948540      -1.24702640      -0.00916378       0.01508915       0.07504553      -0.00220195      -0.00140865       0.00086745
15
Properties=species:S:1:pos:R:3:mp2_forces:R:3:forces:R:3 R1=CN R2=H R3=CH3 R4=NO2 lg=Cl nu=Cl rxn-id=1300 mp2_energy=-36296.982485994035 energy=-36296.00670796542 free_energy=-36296.98248395324 pbc="F F F"
C        0.89653693      -0.01807234      -0.00329622       0.03755082      -0.00651365       0.00488505       0.00100805       0.00490197       0.00093266
C        0.93375061       1.50026042      -0.05908837      -0.01340405      -0.01032749      -0.00522535      -0.00143545       0.00259116      -0.00045280
H        1.93790821       1.80118868      -0.35876744      -0.02978478      -0.03577210      -0.00668125      -0.00147563       0.00263199       0.00038503
Cl      -1.45583976      -0.18593577      -0.19123368       0.04843378       0.04092836      -0.01272852       0.00206007       0.00143248      -0.01649798
Cl       3.04671618      -0.19591836       0.74335242      -0.00912936       0.03248932       0.08665307       0.00286690       0.00399665      -0.00764090
H        0.64117911      -0.51751317       0.91070882       0.04890866      -0.03043202      -0.00662234       0.00144745       0.00469940      -0.00184522
C        1.11251386      -0.81443907      -1.17666682      -0.03753417      -0.02329568      -0.02780549       0.00516290      -0.01932104      -0.01813723
N        1.32319301      -1.48126050      -2.12404945      -0.03664978       0.02932211      -0.00830382      -0.00460979      -0.01079583       0.02808616
C        0.55667447       2.10694224       1.27047322       0.00423491       0.00080106      -0.00713516      -0.00090146      -0.00186392       0.00145454
H       -0.47031304       1.84258758       1.51933615       0.00604680       0.01453838      -0.00534995       0.00079812      -0.00357278       0.00554769
H        1.24046205       1.71546405       2.02557132       0.00052048      -0.00433049      -0.00691384       0.00171105      -0.00062520      -0.00069108
H        0.64742028       3.19261020       1.23618838       0.01840592       0.00275912       0.02744538      -0.00471745      -0.00218018       0.00139307
N        0.09191176       2.05891445      -1.18718986      -0.01026473      -0.01067988      -0.01025147      -0.00087771       0.00490016       0.00192402
O       -0.71238054       2.94886985      -0.93129133      -0.01420559      -0.01578349      -0.00351119       0.00334723       0.00791840       0.00464533
O        0.35832688       1.64452632      -2.30957296      -0.01312889       0.01629646      -0.01845511      -0.00438427       0.00528674       0.00089670
13
Properties=species:S:1:pos:R:3:mp2_forces:R:3:forces:R:3 R1=CH3 R2=H R3=CN R4=H lg=F nu=Cl rxn-id=1808 mp2_energy=-20945.00614547083 energy=-20943.09972518414 free_energy=-20945.006144246046 pbc="F F F"
C        1.14391817      -0.03842087      -0.00048581       0.00155003      -0.03462642      -0.00321634       0.01342278       0.00189177       0.00208759
C        0.99555704       1.46615348      -0.04023227      -0.01174224      -0.02219890      -0.01152622       0.00184254       0.00147004      -0.00073101
H        1.90790446       1.94117429      -0.40948022      -0.00514626      -0.02356470       0.05520905       0.00133731       0.00351719       0.00191599
F       -0.87400696      -0.09305945      -0.15580179       0.03938789       0.03754787       0.02055332      -0.00274119       0.00452798      -0.00047520
Cl       3.21798715      -0.14073016       0.65042603       0.03230439       0.03035875      -0.03362230      -0.00593882       0.00283994      -0.00741223
H        0.82655002      -0.57544034       0.87039630       0.03534159       0.02451927       0.01786068      -0.00113703       0.00414731      -0.00309986
H        0.15483326       1.67149454      -0.70266704      -0.01177630      -0.00082586      -0.02027999       0.00364048       0.00389981      -0.00088503
C        1.29473465      -0.73802727      -1.32317021      -0.01346621      -0.01135322      -0.01236905       0.00037999      -0.00167411       0.00193778
H        0.33752157      -0.66225778      -1.83351868       0.01957606       0.05890481      -0.00475255       0.00044194      -0.00416890       0.00194743
H        2.09606391      -0.28604889      -1.91241122       0.01829279      -0.06193367       0.05083795      -0.00229052      -0.00473744      -0.00313559
H        1.54469593      -1.78766244      -1.16748180      -0.05786049       0.00139115      -0.04326304      -0.00149353      -0.00163175       0.00500863
C        0.67639063       2.03685312       1.26474712      -0.01412178      -0.02004568      -0.01409239      -0.00444383      -0.00229478      -0.00031730
N        0.42930541       2.54349589       2.29378797      -0.03233949       0.02182660      -0.00133911      -0.00302012      -0.00778708       0.00315881
14
Properties=species:S:1:pos:R:3:mp2_forces:R:3:forces:R:3 R1=NO2 R2=H R3=H R4=CH3 lg=Br nu=Cl rxn-id=876 mp2_energy=-91294.06677935288 energy=-91293.29611776462 free_energy=-91294.06677184919 pbc="F F F"
C        0.85121328      -0.02544493      -0.03197483       0.03290504       0.02595864      -0.04574274       0.02338718      -0.00171013       0.01116029
C        1.08162742       1.45279750      -0.20853564       0.04637425       0.02039649       0.03817023       0.00403673       0.00142369      -0.00081478
H        2.09076660       1.55128873      -0.60471839       0.04331527       0.01268493       0.01010468       0.00342754      -0.00007643      -0.00615085
Br      -1.62664603      -0.22328194      -0.30881564       0.04852060       0.01912154      -0.00518978      -0.01327734      -0.00442545      -0.01086637
Cl       3.00569606      -0.42366593       0.78799171       0.00478337       0.01863775       0.05835553      -0.01170676       0.00250244      -0.00803910
H        0.57910939      -0.53868991       0.86587208       0.00634838       0.01848005      -0.07754704      -0.01524117       0.00111551       0.00305622
H        1.11381449       1.86533090       0.80281665      -0.01207982       0.04249635       0.05645941       0.00601541       0.00019500      -0.00013134
N        1.08610667      -0.91504174      -1.18790148      -0.02745356       0.00924888      -0.01593921       0.00288989       0.00011769       0.00223674
O        1.39201044      -0.37101314      -2.25021289      -0.07543075       0.03895600       0.03517285      -0.00229875      -0.00043140      -0.00137325
O        0.96875580      -2.12053352      -1.01190037      -0.05882287      -0.05663854      -0.03719682       0.00788832       0.00174703       0.00163270
C        0.14253649       2.27542075      -1.08830347       0.01068444      -0.04109019       0.01529301      -0.00297907       0.00053835       0.00081987
H        0.03041365       1.81874810      -2.06981890       0.03153789      -0.02677625       0.01178720      -0.00473225      -0.00303652       0.00140346
H       -0.84531153       2.37326380      -0.64617608      -0.00375625      -0.05022210      -0.02436186      -0.00122247       0.00300505       0.00802924
H        0.58066875       3.27198498      -1.21241055      -0.04692600      -0.03125354      -0.01936544       0.00381273      -0.00096483      -0.00096282
14
Properties=species:S:1:pos:R:3:mp2_forces:R:3:forces:R:3 R1=NH2 R2=CN R3=CN R4=CN lg=Cl nu=Cl rxn-id=2623 mp2_energy=-36188.81519176074 energy=-36187.425009647035 free_energy=-36188.81519578857 pbc="F F F"
C        1.27488860      -0.09617638       0.07700454       0.00795376      -0.01193009      -0.07465210      -0.00059812      -0.00108640       0.00130827
C        1.26540876       1.44872781       0.03877879      -0.01709091      -0.01763822      -0.00716728      -0.00004476      -0.00015232       0.00026984
H        2.30756104       1.77785917      -0.01783113      -0.02828987      -0.00274986       0.01061887       0.00021786       0.00019661       0.00050715
Cl      -1.09438915      -0.07639343      -0.01704661       0.03307186       0.02848674       0.06368472       0.00410662      -0.00357723       0.00043695
Cl       3.57613695      -0.19281423       0.41784275       0.03421077       0.02489237      -0.03137529       0.00137995       0.00024258      -0.00026788
N        1.38975375      -0.75540129      -1.17941375      -0.02817945      -0.02777875      -0.02587834       0.00231760      -0.00018533       0.00130847
H        0.49127786      -1.13717537      -1.44166978       0.02757938      -0.03835848       0.03188504      -0.00036840       0.01566199      -0.01261416
H        2.09439407      -1.47611426      -1.11893401      -0.03765589       0.06141339       0.00187506      -0.00899956      -0.01082901       0.00488349
C        1.11962425      -0.78850490       1.33576675       0.03254645      -0.00677566       0.03379301       0.00377208       0.00022550       0.00107203
N        1.01598478      -1.39838445       2.33873718      -0.05971486      -0.00414016       0.02310463       0.00409529      -0.00082836       0.00382755
C        0.69791564       2.04120892       1.24954073      -0.01466921       0.00403725      -0.02912869      -0.00086490       0.00076208      -0.00090127
N        0.32154438       2.56731329       2.22906261      -0.00562293      -0.03415484       0.01272761      -0.00476539       0.00225557      -0.00197447
C        0.61110167       1.97100882      -1.16525886       0.01517833      -0.00343335      -0.00753699       0.00201809      -0.00289440       0.00469924
N        0.22010043       2.50164503      -2.13688794       0.04068257       0.02812965      -0.00195026      -0.00226635       0.00020871      -0.00255521
11
Properties=species:S:1:pos:R:3:mp2_forces:R:3:forces:R:3 R1=H R2=H R3=NO2 R4=H lg=Br nu=Cl rxn-id=29 mp2_energy=-90227.66649340076 energy=-90226.87152318166 free_energy=-90227.66649340076 pbc="F F F"
C        1.01682207      -0.07289234       0.04592326      -0.01662047      -0.01874569       0.00214181      -0.00140815       0.00718723      -0.01232874
C        1.09321920       1.42300379       0.03500810      -0.00123729      -0.00067576       0.01219984      -0.00087285      -0.00144759       0.01086525
H        2.11836077       1.77314622      -0.07971537       0.00709719       0.00957240      -0.00112612      -0.00143913      -0.00212905       0.00517305
Br      -1.36520251      -0.19946785      -0.51956810       0.00769569       0.00137802      -0.09548133       0.00005560       0.00372418       0.00605326
Cl       3.26524641      -0.43552124       0.60005009       0.01754595       0.01884623      -0.04029828       0.00614022      -0.00495768      -0.01033447
H        1.21378726      -0.60304100      -0.86527350      -0.03272941       0.01401609       0.05285008      -0.00302562       0.00202979       0.01132235
H        0.78120928      -0.60344381       0.94583985       0.00934886      -0.03971473       0.06872373       0.00678508      -0.00239505      -0.00259346
H        0.46452037       1.86463230      -0.73414528      -0.02657112      -0.00536525      -0.01556359       0.00972883      -0.00506303       0.00177668
N        0.62321618       2.03836668       1.31730283       0.01812362       0.03563434      -0.01417212      -0.00544069       0.00086108       0.00212833
O        0.45680723       3.25728465       1.28391950       0.02814394      -0.00937034       0.01217612      -0.00242843       0.00408868      -0.00929853
O        0.47456298       1.33501412       2.30789736      -0.01079697      -0.00557531       0.01854985      -0.00809485      -0.00189857      -0.00276371
16
Properties=species:S:1:pos:R:3:mp2_forces:R:3:forces:R:3 R1=CN R2=CN R3=CH3 R4=NO2 lg=Cl nu=F rxn-id=1441 mp2_energy=-29004.5294350704 energy=-29004.27271683915 free_energy=-29004.5294350704 pbc="F F F"
C        0.73196794      -0.03797868      -0.00078051       0.04630820       0.04426699      -0.00835204      -0.00500874       0.00054103      -0.00145627
C        0.78879529       1.49362220      -0.06630964       0.01363822      -0.00579159       0.00556356      -0.00163951       0.00044675      -0.00080248
H        1.79824608       1.72508111      -0.39773731       0.00362282       0.02284214      -0.01793791      -0.00303568       0.00141375      -0.00323120
Cl      -1.43875060      -0.27917105      -0.30918905      -0.04675402      -0.00179040       0.02099512       0.00610752       0.00739624      -0.00305740
F        2.58966888       0.03359730       0.43153192      -0.00579489       0.00404229       0.03797303       0.00426715       0.00223076      -0.00385043
C        1.10842722      -0.83342980      -1.14505474      -0.00388976      -0.00175797       0.01765388       0.00202050      -0.00339230       0.00557228
N        1.41826967      -1.49204633      -2.06884262       0.00677447       0.02538848      -0.02130800      -0.00122989      -0.01055581       0.00711074
C        0.65478332      -0.70025463       1.28326433      -0.04406532      -0.00799266       0.02227420       0.00393032      -0.00139709       0.00540929
N        0.56226187      -1.20872636       2.33941226       0.02862087      -0.00757917      -0.01668815       0.00344060      -0.00466580      -0.00573383
C        0.49137453       2.12373465       1.26972601      -0.00276769      -0.01817680      -0.00559815      -0.00218416      -0.00129892       0.00013710
H       -0.50835245       1.85337330       1.61061365      -0.00107798       0.01358567       0.02151507      -0.00245271      -0.00138268       0.00021101
H        1.23785780       1.76120495       1.97608759      -0.00453718      -0.01749614      -0.01716696      -0.00241215      -0.00175137       0.00027507
H        0.55857649       3.20918085       1.19638979       0.00871420      -0.02523158      -0.02365144      -0.00161951      -0.00145624       0.00080654
N       -0.07859730       2.06224646      -1.16258031      -0.00195143      -0.03119909      -0.01206317      -0.00079431       0.00346808      -0.00057674
O       -0.91431709       2.91443819      -0.87500556       0.00714946      -0.00275335      -0.01919036       0.00233390       0.00644058       0.00011700
O        0.18519700       1.68523457      -2.30054034      -0.00398997       0.00964319       0.01598131      -0.00172333       0.00396304      -0.00093069
16
Properties=species:S:1:pos:R:3:mp2_forces:R:3:forces:R:3 R1=CN R2=CN R3=CH3 R4=NH2 lg=Cl nu=F rxn-id=1452 mp2_energy=-24951.619493867092 energy=-24951.452551349288 free_energy=-24951.619493867092 pbc="F F F"
C        0.69258052      -0.00723407      -0.02066475      -0.06039832      -0.06163312      -0.00526729       0.00766329       0.00069369       0.00354905
C        0.69184490       1.52923003      -0.04532093       0.02326462       0.00696670      -0.00407405      -0.00060433       0.00054039       0.00037779
H        1.74352923       1.76112585      -0.20042959       0.08313642       0.04501635      -0.02635794      -0.00189418       0.00655616      -0.00112894
Cl      -1.44509817      -0.35547380      -0.16774110      -0.03971099       0.03896021       0.01495427       0.00594355       0.00479888      -0.00152815
F        2.66195354       0.02773395       0.25455683      -0.00255989       0.02414026       0.06089597      -0.00194289       0.00026063      -0.01066205
C        1.04528143      -0.69220407      -1.24236731       0.04415252      -0.02235802      -0.03039670       0.00043074      -0.00232214       0.00321747
N        1.28566857      -1.24103876      -2.25389365       0.00428483       0.02828946      -0.03496860      -0.00688117      -0.00650245       0.00456772
C        0.82543487      -0.71497999       1.23193687      -0.01301473      -0.01269259       0.04675115       0.00260638       0.00098760       0.00491234
N        0.81368062      -1.25518074       2.27668503       0.04600804       0.02043800      -0.03197681       0.00822333      -0.00678597       0.00155636
C        0.25760147       2.09913341       1.30076441      -0.01900627      -0.00940995       0.01035862      -0.00482802      -0.00230290      -0.00022116
H       -0.76171219       1.79305075       1.54679281      -0.04150284       0.02192648       0.03466246      -0.00454216      -0.00500140      -0.00212852
H        0.93154672       1.76570797       2.09290690       0.00635795      -0.01666382      -0.01395990      -0.00677036      -0.00265603       0.00095989
H        0.29412613       3.19177578       1.25183207       0.01596638      -0.02300268      -0.03336975      -0.00670252      -0.00243197       0.00117868
N       -0.02990786       2.01900651      -1.21129508      -0.01062865      -0.00732766      -0.00010846      -0.00166481       0.00039365       0.00091274
H        0.18071364       3.00324773      -1.32478122       0.02562384      -0.07863373       0.02142464       0.01427356      -0.00438145      -0.00924787