14
Properties=species:S:1:pos:R:3:mp2_forces:R:3:forces:R:3 R1=NO2 R2=NH2 R3=H R4=CN lg=Br nu=Cl rxn-id=1108 mp2_energy=-94235.13046707264 energy=-94235.17399005036 free_energy=-94236.46704907104 pbc="F F F"
C        1.15116745      -0.06985776      -0.03727858       0.27356225      -0.01663753      -0.09037794       0.26952682       0.00938358      -0.03541023
C        1.08176004       1.44915542      -0.01765063       0.00251117      -0.00726176      -0.04632653       0.01011296       0.00007928       0.00130537
H        2.04974515       1.80643388       0.33211427      -0.01504184       0.06003529       0.03157152      -0.01253314       0.05361474       0.01308514
Br      -1.36477580      -0.23806924       0.11420252      -0.11164446       0.00796494       0.00434247      -0.11754946      -0.01314227       0.01287507
Cl       3.43759245      -0.06563642      -0.52863261      -0.12471924      -0.00333113       0.03785919      -0.11004748       0.00635207       0.02406187
H        0.32620519       1.73572585       0.71314798      -0.00220979      -0.04818785       0.01726624      -0.00949109      -0.03622982      -0.00740096
N        1.00448832      -0.89282811      -1.31170346       0.00106318       0.00832821       0.01842124      -0.01779991      -0.00426613      -0.00184543
O        0.87122218      -0.29490718      -2.36611352      -0.03062960      -0.03206726      -0.02001357      -0.01693730      -0.00779380      -0.00452930
O        1.06072080      -2.10446960      -1.16123505      -0.00880679      -0.04082252       0.02253126      -0.00498655      -0.00325046      -0.00028543
N        1.34033691      -0.72242771       1.19326504       0.02765273      -0.01090622       0.06454420       0.03657110      -0.00224762      -0.00922638
H        2.16799350      -1.29816675       1.13083342      -0.02859870      -0.06677449       0.05509153      -0.00727489      -0.06004420       0.03944570
H        0.52982935      -1.28080101       1.42583106       0.04060920       0.04544137      -0.06825648      -0.01902001       0.05635110      -0.03389305
C        0.77439081       2.13938686      -1.26392569      -0.01767699       0.03820950      -0.03811004      -0.00449881       0.00266556      -0.00890446
N        0.54054719       2.82344181      -2.18841522      -0.00607110       0.06600945       0.01145693       0.00392777      -0.00147202       0.01072207
13
Properties=species:S:1:pos:R:3:mp2_forces:R:3:forces:R:3 R1=NO2 R2=H R3=CN R4=CN lg=Cl nu=Cl rxn-id=918 mp2_energy=-37734.52617480367 energy=-37734.49752077293 free_energy=-37735.580121463325 pbc="F F F"
C        0.91470813      -0.09386280       0.05279418      -0.10656651       0.01524933      -0.05476412      -0.08372266       0.00290298      -0.01828054
C        1.06124830       1.42068310      -0.03696490       0.00647868      -0.01139995       0.01916902      -0.00083247       0.00483913      -0.00386348
H        2.11540937       1.64932467      -0.21779584       0.00065907      -0.03057435       0.01884802       0.00095445      -0.01053452       0.00279158
Cl      -1.35122491      -0.05358083      -0.35058501      -0.00731470      -0.00565646      -0.00692963       0.03394715      -0.00121593      -0.00063480
Cl       2.98799321      -0.41207011       0.83241770       0.04557249       0.00846035       0.03137314       0.02829774       0.00284745       0.00331566
H        0.58226332      -0.64353908       0.90988857       0.04101994       0.02450112       0.00656692       0.02132287       0.00375109       0.00258208
N        1.18250032      -0.85268553      -1.17924008       0.03010717       0.00118507       0.01982543      -0.00295340      -0.00780219       0.00374995
O        1.59136331      -0.20297528      -2.13918323      -0.03494226       0.00540327      -0.02389127      -0.00507968      -0.00800002      -0.00348531
O        1.00620343      -2.06119920      -1.13955314       0.00720149      -0.01143433       0.00053397       0.00672912      -0.00628926       0.01068776
C        0.70474623       1.99462400       1.26296792       0.01397197      -0.04016158       0.01309016       0.00219100      -0.00115452      -0.00166620
N        0.44902989       2.47481918       2.30268711      -0.00546651       0.02367215       0.01261968      -0.00921755      -0.00759259       0.00096227
C        0.31429872       2.10307447      -1.10256858       0.02674073       0.00252166      -0.02328761       0.00987786       0.01595862       0.00216321
N       -0.12496496       2.80422567      -1.93596390      -0.01746158       0.01823371      -0.01315372      -0.00151443       0.01228974       0.00167782
19
Properties=species:S:1:pos:R:3:mp2_forces:R:3:forces:R:3 R1=CH3 R2=CH3 R3=NH2 R4=NO2 lg=Br nu=Br rxn-id=2285 mp2_energy=-151365.77013079223 energy=-151366.1155597588 free_energy=-151367.59022929455 pbc="F F F"
C        1.42867393      -0.10866646      -0.01385684       0.66585304      -0.30231062      -0.00404290       0.09407746      -0.00861975      -0.00000313
C        1.53392463       1.40971284       0.01968089      -0.02866659       0.05477346      -0.00879263       0.01925169       0.00437895       0.00044705
H        2.59732177       1.63687458      -0.11921057      -0.10442874      -0.09400193       0.06567070       0.00833694       0.04887199       0.01015808
Br      -1.97421718       0.52954912       0.41896689       0.30677900      -0.07204983      -0.04560157      -0.03933180       0.00295447       0.02785945
Br       4.34539543      -0.40976500      -0.00642574      -1.02954320       0.05144285       0.00332850      -0.10857665      -0.00154980      -0.00243106
C        1.23301550      -0.89011784      -1.26256781       0.26686175      -0.07660280       0.22681271       0.01723712       0.00045156       0.00097759
H        0.20556469      -0.71743915      -1.60646498      -0.07112596       0.17568559       0.10919214      -0.00202767       0.00171829       0.05425018
H        1.92604562      -0.59876092      -2.04557215      -0.08791494       0.08213173       0.00915631      -0.02405857       0.00512922      -0.03268194
H        1.34629956      -1.95014865      -1.03481313       0.01237060       0.01639464      -0.01702174       0.02490499      -0.00102034      -0.00973156
C        1.20648380      -0.83673595       1.26389604       0.36952050       0.22248039      -0.04206874       0.01605130       0.00016281      -0.00240951
H        1.90798818      -1.67204757       1.30549028      -0.14235445      -0.05287946      -0.05138308      -0.03261514      -0.03863118       0.00940786
H        1.33215978      -0.19496125       2.13034103       0.03207124       0.02432159      -0.04931064       0.03220399      -0.00710456       0.00069248
H        0.17763406      -1.21331365       1.24402676      -0.09088153       0.04528497      -0.13189660      -0.00644862       0.05875608      -0.01943561
N        1.03821302       1.96614345       1.21529801      -0.00922279      -0.02767130       0.05475228      -0.00807054      -0.01018069      -0.00414850
H        0.03207925       1.79471852       1.27136236      -0.02576235       0.01682673      -0.02723618      -0.00631019      -0.02594911      -0.01283142
H        1.21901590       2.95950819       1.24123086      -0.02104686      -0.01370879       0.00398677      -0.02579603      -0.00667209      -0.00182421
N        0.92595790       2.07860670      -1.25229758      -0.20828812       0.07838174      -0.11765027       0.01615703      -0.01379779      -0.00955409
O        0.21425012       3.05791415      -1.07018491       0.11391568      -0.07906343       0.02722754      -0.00339156      -0.01290533      -0.00851625
O        1.29554497       1.66382428      -2.34659239       0.05186377      -0.04943551      -0.00512261       0.02840625       0.00400726      -0.00022540
15
Properties=species:S:1:pos:R:3:mp2_forces:R:3:forces:R:3 R1=NO2 R2=H R3=CH3 R4=CN lg=Br nu=Cl rxn-id=946 mp2_energy=-93799.08101835694 energy=-93799.06661367546 free_energy=-93799.95795001902 pbc="F F F"
C        0.83464159      -0.03362325       0.01986420      -0.00866561       0.03738187       0.00071613      -0.03331459       0.00180545      -0.00934292
C        0.89860248       1.47941952      -0.06358888       0.01012244      -0.00493669       0.03393198      -0.00243042       0.00130033      -0.00282515
H        1.93848452       1.74337060      -0.26903394      -0.00472163      -0.02145404       0.00315286      -0.00083183      -0.00249796      -0.00183499
Br      -1.61125134      -0.24124093      -0.33263711      -0.00781490      -0.00038573      -0.03431340       0.02121780       0.00584724      -0.00705008
Cl       2.94482100      -0.25959228       0.85087389       0.03848621      -0.00138311       0.00846729       0.01336537       0.00101853       0.00422805
H        0.54624497      -0.60331382       0.87955649      -0.00856241       0.01500976      -0.00244775       0.00935381       0.00225221       0.00549424
N        1.15789780      -0.81207727      -1.18763216       0.00537331       0.02959775       0.00131752      -0.00219459      -0.00437518       0.00304143
O        1.53422067      -0.16760622      -2.16574815      -0.04229009      -0.01663251      -0.02611339      -0.01243591      -0.00842134      -0.00310695
O        1.05992848      -2.03006786      -1.11879079       0.01691699      -0.00812161       0.01171458       0.00898017      -0.00471291       0.01182706
C        0.49629979       2.07239910       1.28856166      -0.00062765      -0.02753511      -0.01230725      -0.00128261      -0.00217050      -0.00099169
H       -0.54078567       1.81665224       1.50763765       0.00306313       0.00831780       0.00909170      -0.00048240      -0.00489053       0.00018561
H        1.15220434       1.66991981       2.06200519      -0.00602584       0.00478483      -0.00547212       0.00127242      -0.00510306      -0.00485548
H        0.59994682       3.15897193       1.26408615      -0.00055299       0.01106622       0.00466143      -0.00476924      -0.00183399       0.00433350
C        0.12585135       2.10006927      -1.14564259       0.00653208      -0.03668554       0.01508262       0.00101346       0.00832721      -0.00091849
N       -0.38117932       2.77117733      -1.96610627      -0.00123306       0.01097611      -0.00748222       0.00253856       0.01345448       0.00181587
17
Properties=species:S:1:pos:R:3:mp2_forces:R:3:forces:R:3 R1=H R2=CH3 R3=CH3 R4=NH2 lg=Br nu=Cl rxn-id=669 mp2_energy=-88307.36903988534 energy=-88307.358230097 free_energy=-88308.19840605545 pbc="F F F"
C        0.84991121       0.01188393       0.04606033      -0.25573030       0.01577063       0.06599000      -0.23113006       0.01639796       0.04526144
C        0.95274951       1.51669439       0.03740817      -0.06902280      -0.00588567       0.02979001      -0.03389765      -0.00984741       0.00051523
H        2.02690652       1.71946208       0.04360488       0.00245845      -0.04683118      -0.02213800      -0.01721352      -0.06350283      -0.00425747
Br      -1.66783709      -0.21247741      -0.08165279       0.14128953       0.01324639       0.02032850       0.13329504       0.01186658       0.01051310
Cl       3.23574197      -0.45566409      -0.59678121       0.15734819      -0.04748988      -0.01885508       0.13021204      -0.03025513      -0.03356391
H        0.78262397      -0.48851521      -0.89975932       0.04751961      -0.01614588      -0.01156750       0.06621208       0.00101038      -0.01226353
C        1.01708775      -0.73770508       1.33631731       0.00368944      -0.00784274      -0.02588610      -0.02766649      -0.00359407      -0.00564445
H        1.95484632      -0.44891859       1.81302828      -0.00773325       0.01221112      -0.03376401      -0.00789737       0.02115497      -0.03940331
H        0.18953416      -0.51769195       2.00888524      -0.01178459      -0.00614771       0.04307910      -0.00100190      -0.02323475       0.04258917
H        1.04767801      -1.80907823       1.14752294       0.00374144       0.00031790      -0.02265590       0.00162160       0.00014198      -0.00476385
C        0.36229696       2.17286508       1.29138349       0.00598119       0.03939690       0.00616300      -0.00223770       0.01352213       0.00453208
H       -0.70750689       1.97314689       1.36474940       0.00532190      -0.00217375      -0.00914033      -0.00202584       0.01598370       0.01373128
H        0.85405547       1.82594808       2.20498475      -0.00493496      -0.00401420      -0.00857230       0.00375714       0.00526776      -0.00414635
H        0.51696507       3.25492260       1.22440795       0.00185801       0.00980542       0.00921914       0.00139224       0.01163205       0.00153100
N        0.42871555       2.03447712      -1.22175634      -0.03306825       0.02193062      -0.00146426      -0.01018110       0.00455780       0.00049799
H        0.54004851       3.04216131      -1.23300217       0.00715003       0.00421713      -0.00462120      -0.00045793       0.00996584      -0.00389682
H       -0.56446633       1.82356653      -1.24694081       0.00591634       0.01963490      -0.01590507      -0.00278057       0.01893302      -0.01123161
15
Properties=species:S:1:pos:R:3:mp2_forces:R:3:forces:R:3 R1=CN R2=H R3=CH3 R4=NO2 lg=Cl nu=Cl rxn-id=1300 mp2_energy=-36296.01005390408 energy=-36296.00726484642 free_energy=-36296.98248395324 pbc="F F F"
C        0.90066581      -0.01741358      -0.00382241       0.07308960       0.00206623       0.01800747       0.03766325       0.00029754       0.00711654
C        0.93356870       1.50100355      -0.05929056      -0.02844607      -0.00942477       0.01147898       0.00286759       0.00297209      -0.00034344
H        1.93745064       1.80316109      -0.35843883       0.01336963      -0.01769536       0.00271510      -0.00005787       0.01256948      -0.00067603
Cl      -1.45629831      -0.18538634      -0.19820418      -0.04008626      -0.02167223      -0.03567255      -0.01320779      -0.00047609      -0.00840828
Cl       3.04613521      -0.19422913       0.73990461       0.00193622      -0.00653300      -0.02949957      -0.01459457       0.00499682      -0.01115547
H        0.64061289      -0.51577670       0.90952908      -0.00008868       0.03259011      -0.00313389      -0.01061511       0.00141326      -0.00384430
C        1.11283323      -0.81665965      -1.17617418       0.00311671      -0.01101104      -0.00911836      -0.00183757      -0.00415813       0.00202062
N        1.32289518      -1.48986866      -2.11891686      -0.01056521      -0.00525989       0.02515271      -0.00078443      -0.01549990       0.00802377
C        0.55621454       2.10602387       1.27111021      -0.00354187       0.01321113       0.01632249       0.00032921      -0.00158788       0.00115489
H       -0.47025193       1.84063704       1.52121222       0.00980595       0.00291824      -0.00524527       0.00167743      -0.00757897      -0.00122050
H        1.24101319       1.71502689       2.02553394      -0.00697382       0.00375327      -0.01173392       0.00236011       0.00046146       0.00020262
H        0.64538315       3.19180031       1.23711971      -0.00485577      -0.00234467       0.01451596      -0.00306445      -0.00159120       0.00369941
N        0.09162880       2.06082579      -1.18645269      -0.01922716       0.02275251       0.04941615      -0.00153461       0.00033286       0.00106420
O       -0.71071082       2.95223485      -0.92943306       0.00619954       0.00904300      -0.00619985       0.00434787       0.00495836       0.00244599
O        0.35691970       1.64684528      -2.30920284       0.00626721      -0.01239355      -0.03700544      -0.00354907       0.00289029      -0.00008003
13
Properties=species:S:1:pos:R:3:mp2_forces:R:3:forces:R:3 R1=CH3 R2=H R3=CN R4=H lg=F nu=Cl rxn-id=1808 mp2_energy=-20943.12975980092 energy=-20943.130554203657 free_energy=-20945.006144246046 pbc="F F F"
C        1.20261989      -0.03827881       0.01100039       0.52562837       0.00171793       0.09739400       0.55992617       0.00262579       0.10275273
C        0.99932666       1.46440038      -0.03873273       0.06367865      -0.01479026       0.00472380       0.05269621      -0.02271156       0.00458502
H        1.91077346       1.94770351      -0.40076256      -0.02144974       0.09511276      -0.00343002      -0.01251952       0.09933982      -0.02106617
F       -0.89844798      -0.09587782      -0.14905436      -0.33264115       0.03457668      -0.01615920      -0.32533242       0.02547079      -0.02236940
Cl       3.18899241      -0.13671609       0.63030344      -0.22335092       0.01187622      -0.05675648      -0.23197716       0.00571021      -0.05278288
H        0.81802534      -0.57064757       0.86092349      -0.09242086       0.04604678      -0.13637959      -0.11641856       0.05523291      -0.12833967
H        0.16133654       1.66868849      -0.70510598       0.01529751      -0.16038557       0.02633508      -0.00364062      -0.15881603       0.03025458
C        1.29756882      -0.73817733      -1.32139825       0.04461822       0.02486775       0.02353169       0.06352755       0.01079347       0.02139466
H        0.33859826      -0.65770695      -1.82846483      -0.00727339       0.05497539       0.17017672      -0.01173128       0.06138599       0.16943600
H        2.09981882      -0.29354537      -1.91525220       0.01123276      -0.02786285      -0.06520348       0.01497636      -0.02954172      -0.07948217
H        1.53899580      -1.79053140      -1.16698816       0.01300377      -0.01766128      -0.01430601       0.00441310      -0.01332234      -0.01747710
C        0.67021067       2.03459925       1.26474294       0.00453416      -0.03197882      -0.02549781       0.00399732      -0.02240587      -0.00295238
N        0.42363656       2.54361385       2.29289719      -0.00085740      -0.01649474      -0.00442871       0.00208285      -0.01376148      -0.00395321
14
Properties=species:S:1:pos:R:3:mp2_forces:R:3:forces:R:3 R1=NO2 R2=H R3=H R4=CH3 lg=Br nu=Cl rxn-id=876 mp2_energy=-91293.2704922869 energy=-91293.298671189 free_energy=-91294.06677184919 pbc="F F F"
C        0.86711547      -0.02588405      -0.02580058       0.22083498      -0.04576401       0.05520560       0.18910160      -0.01608657       0.04715398
C        1.08387728       1.45370682      -0.20772298       0.02984715       0.02640844       0.01055888       0.02144819       0.00342741       0.00122944
H        2.09195136       1.55284732      -0.60612962       0.01632858       0.02543407      -0.03616933       0.01308542       0.03214444      -0.00806381
Br      -1.63390285      -0.22424806      -0.30180095      -0.08364662      -0.00401825       0.00121271      -0.08402988      -0.01474879      -0.01465742
Cl       3.00024924      -0.42560326       0.78341234      -0.09532817       0.03925894      -0.03817998      -0.08299943       0.01915206      -0.03767494
H        0.57545141      -0.53768854       0.86697793      -0.06955370       0.01221175      -0.02767595      -0.05926496       0.00942418      -0.01682877
H        1.11581825       1.86873216       0.80260117      -0.00058962      -0.01064537       0.03990646       0.00605698       0.00452759       0.00137671
N        1.08533116      -0.91208397      -1.18763983      -0.02050278       0.04433803      -0.02416794       0.00892575      -0.00276918       0.00297387
O        1.39497913      -0.36589626      -2.24781931       0.00501328      -0.03053278       0.01492752      -0.01277089      -0.00361333      -0.00415726
O        0.96187155      -2.11753031      -1.01612484       0.00813653      -0.01520050      -0.00384272       0.00344098      -0.00166500       0.00542186
C        0.14237592       2.27232359      -1.08954593      -0.02215633      -0.03302112       0.01380240      -0.00155616      -0.01074448       0.00487795
H        0.03544900       1.81547122      -2.07153648       0.00500730      -0.00925970      -0.00623137      -0.00890275      -0.00487957       0.00412223
H       -0.84715151       2.36629547      -0.65046098       0.00052820       0.00689880       0.00693129       0.00279912      -0.00412417       0.01122820
H        0.57734608       3.27072152      -1.21249775       0.00608115      -0.00610830      -0.00627755       0.00466603      -0.01004459       0.00299795
14
Properties=species:S:1:pos:R:3:mp2_forces:R:3:forces:R:3 R1=NH2 R2=CN R3=CN R4=CN lg=Cl nu=Cl rxn-id=2623 mp2_energy=-36187.42716433058 energy=-36187.44529024465 free_energy=-36188.81519578857 pbc="F F F"
C        1.32428885      -0.09631179       0.08120840       0.48427420      -0.03878934      -0.03870403       0.53341126      -0.02440398       0.04446088
C        1.26529096       1.44981351       0.03793306       0.00619409      -0.06344427       0.00279510       0.02189632      -0.01436064      -0.00104452
H        2.30333341       1.79138541      -0.02051653      -0.03385518       0.09590660      -0.01384242      -0.01928801       0.10964995      -0.01296167
Cl      -1.11444815      -0.07086052      -0.02003182      -0.22160494       0.01193722       0.01965934      -0.20227627       0.00105100       0.00158286
Cl       3.55004528      -0.18830528       0.41207903      -0.25337545       0.01291078      -0.02693101      -0.23182598       0.00424760      -0.03450839
N        1.38922176      -0.75738913      -1.17950565       0.09359615      -0.00141240       0.03806203       0.07024929       0.00189963       0.00282769
H        0.48992642      -1.15690979      -1.41496821      -0.00611958       0.09556535       0.08588231      -0.01900485       0.10208051       0.09492862
H        2.10656608      -1.46527781      -1.13398724       0.01059084      -0.10503722      -0.09206892      -0.01891520      -0.09123059      -0.07192176
C        1.10332452      -0.78823226       1.33280720      -0.07141800       0.03078059      -0.02283430      -0.09622712       0.01071802      -0.03288898
N        1.01071633      -1.40163362       2.33465785      -0.00868975       0.00781357      -0.00077581      -0.00560849      -0.00052194       0.00478486
C        0.69791180       2.03773544       1.25126891      -0.01747155      -0.02500234      -0.01276448      -0.01627218      -0.03919476      -0.00104781
N        0.33057108       2.56247438       2.23512589       0.00677231       0.02255519       0.01224818       0.00115153       0.00270502      -0.01419962
C        0.60771909       1.96771906      -1.16637151       0.01780130      -0.03420076       0.03607012      -0.02586711      -0.05961062       0.00318111
N        0.22683562       2.50259114      -2.14000814      -0.00669444      -0.00958298       0.01320390       0.00857680      -0.00302918       0.01680674
11
Properties=species:S:1:pos:R:3:mp2_forces:R:3:forces:R:3 R1=H R2=H R3=NO2 R4=H lg=Br nu=Cl rxn-id=29 mp2_energy=-90226.90047801293 energy=-90226.90395513883 free_energy=-90227.66649340076 pbc="F F F"
C        0.95624870      -0.07051813       0.03330427      -0.70086986       0.05937971      -0.16017714      -0.70457801       0.03696285      -0.16163590
C        1.08660721       1.42265914       0.03726622      -0.10263401       0.02370004      -0.00784508      -0.07493489      -0.00542567      -0.01565250
H        2.11554927       1.76408427      -0.07882394      -0.03444952      -0.17366053       0.02714097      -0.01848261      -0.15698011       0.01725844
Br      -1.33689001      -0.20568639      -0.53542912       0.27589695       0.02289547       0.10764639       0.28378296       0.02382388       0.10544242
Cl       3.28680861      -0.44284061       0.60259978       0.34024204      -0.04925312       0.07671015       0.33005880      -0.05523412       0.06972856
H        1.22472657      -0.60170851      -0.85916392       0.08610909      -0.00095082       0.01199820       0.07957805       0.00521684       0.04114225
H        0.78655024      -0.60555429       0.94738736       0.10932702       0.02739247      -0.01048278       0.11743902       0.02044007      -0.02361389
H        0.46050517       1.87072284      -0.72943505       0.04589202       0.09521519      -0.00527764       0.03008157       0.11626282      -0.00960546
N        0.62428339       2.04209008       1.32073607      -0.00218452       0.00271337      -0.05341550      -0.02158977       0.00640253      -0.01809590
O        0.45497185       3.26073712       1.28312023       0.00493154       0.00544257       0.01155622      -0.00147092       0.01619997       0.00728236
O        0.48318824       1.34309600       2.31567683      -0.02226076      -0.01287434       0.00214620      -0.01988419      -0.00766906      -0.01225038
16
Properties=species:S:1:pos:R:3:mp2_forces:R:3:forces:R:3 R1=CN R2=CN R3=CH3 R4=NO2 lg=Cl nu=F rxn-id=1441 mp2_energy=-29004.287557302425 energy=-29004.273378682778 free_energy=-29004.5294350704 pbc="F F F"
C        0.72237236      -0.03872784      -0.00235203      -0.03216047       0.01297924      -0.01489134      -0.08818757      -0.00260309      -0.02026061
C        0.78826796       1.49312884      -0.06628117       0.00903197      -0.02193471      -0.00398550      -0.00478514      -0.00161677      -0.00089891
H        1.79807720       1.72288512      -0.39760201       0.00735969      -0.02216846      -0.01738052      -0.00249857      -0.01732133       0.00138009
Cl      -1.43508603      -0.27822365      -0.30928119       0.00629389      -0.02058034      -0.01143672       0.03188264       0.00974186       0.00013005
F        2.59255161       0.03338376       0.43255312       0.01909108       0.00299070      -0.01478756       0.02717077       0.00292442       0.00760141
C        1.10964450      -0.83303653      -1.14421363       0.03534278       0.01999338       0.01475303       0.01092957      -0.00070009       0.00949845
N        1.41828511      -1.49122725      -2.06873270      -0.01954528      -0.00558172       0.01309348       0.00190273      -0.00869169       0.01121496
C        0.65733699      -0.69950525       1.28336018      -0.01784495       0.02811805      -0.01078337       0.02324762      -0.00657081       0.01906157
N        0.56239787      -1.20855721       2.33924404      -0.00172578      -0.00394415      -0.02233577       0.00815746       0.00494969      -0.02230242
C        0.49123013       2.12357221       1.26970550      -0.00936604       0.01073824       0.01069509      -0.00147206      -0.00142422      -0.00067878
H       -0.50844626       1.85365909       1.61114309       0.01071134       0.01099531       0.00883779      -0.00214261       0.00062852       0.00169668
H        1.23790867       1.76106852       1.97580545       0.00164643      -0.00457208       0.00438570      -0.00144763      -0.00510778      -0.00154276
H        0.55867797       3.20897774       1.19629211      -0.00509647       0.00239659       0.01175021      -0.00212130      -0.00061825      -0.00065560
N       -0.07839733       2.06272895      -1.16268360       0.00016067       0.02215721       0.03017219       0.00260750       0.01105971      -0.00167241
O       -0.91459292       2.91460043      -0.87533914      -0.01286728       0.00247384      -0.00899013      -0.00007847       0.00877319      -0.00019227
O        0.18518082       1.68537981      -2.30063251       0.00896843      -0.03406110       0.01090342      -0.00316493       0.00657663      -0.00237946
16
Properties=species:S:1:pos:R:3:mp2_forces:R:3:forces:R:3 R1=CN R2=CN R3=CH3 R4=NH2 lg=Cl nu=F rxn-id=1452 mp2_energy=-24951.440031200495 energy=-24951.45961464076 free_energy=-24951.619493867092 pbc="F F F"
C        0.72438565      -0.00398078      -0.01621349       0.22782809       0.02119402      -0.00928030       0.27924844       0.02882969       0.02218821
C        0.69292038       1.53111304      -0.04465269       0.05186893       0.01687308       0.02266850       0.02126253       0.01199720       0.00339508
H        1.74220081       1.77287747      -0.20058416       0.00917847       0.07550959       0.00169079       0.00794446       0.06842275       0.00134110
Cl      -1.45402636      -0.35516488      -0.16788676      -0.09810457      -0.05028327       0.02038924      -0.11374844      -0.01861874       0.00320677
F        2.65356723       0.03041249       0.24377147      -0.07549611       0.03071092      -0.01467944      -0.09320750       0.02091750      -0.02703294
C        1.04152682      -0.69632907      -1.24153964      -0.02729188      -0.02012664       0.00415410      -0.03966338      -0.01197791      -0.02358317
N        1.28001247      -1.24844964      -2.25151080      -0.01213876      -0.02724982      -0.02912496      -0.00878052      -0.01725581      -0.01231953
C        0.82213173      -0.71729407       1.23555581      -0.09787448      -0.00887267      -0.02161137      -0.06351299      -0.02180331       0.00712221
N        0.82098948      -1.26031847       2.27864897       0.00561671      -0.02456015       0.03188346      -0.00363616      -0.00590689       0.01075332
C        0.25324942       2.09723963       1.30103893      -0.00191585      -0.01836379      -0.01459928      -0.00035258      -0.00267575       0.00250130
H       -0.76585431       1.78757275       1.54324123       0.01209294      -0.01194579      -0.01214946       0.00002200      -0.01143524      -0.01055077
H        0.92540623       1.76419668       2.09485051      -0.00866841       0.01401305       0.01999399      -0.00557930       0.00393223       0.01013265
H        0.28717852       3.18998955       1.25376999       0.00373918       0.01326839       0.00722507      -0.00522748      -0.00192348       0.00242962
N       -0.03005035       2.01869060      -1.21031657       0.01302734       0.00522150      -0.02425817       0.00845761      -0.01173262       0.00681463
H        0.19481615       2.99861611      -1.33443689      -0.00937351      -0.01256151       0.00588674       0.00742860      -0.01216809      -0.00886393