9
Lattice="1.0 0.0 0.0 0.0 1.0 0.0 0.0 0.0 1.0" Properties=species:S:1:pos:R:3:forces:R:3 R1=H R2=H R3=CH3 R4=CH3 leaving_group=Cl nucleophile=Cl rxn=sn2 config=rcc label=H_H_CH3_CH3_Cl_Cl_sn2_rcc conformation=0 reactant_id=H_H_CH3_CH3_Cl_none_-_r product_id=H_H_CH3_CH3_none_Cl_sn2_pc mp2_author_energy=-29302.391748605172 mp2_my_energy=0 hash=59123 address=T id=71 energy=-17372.33216497299 free_energy=-17372.33216497299 cell="(1,0,0), (0,1,0), (0,0,1)" pbc="F F F"
C        0.09142836      -0.02057665       0.00018700      -0.00383810       0.00153641      -0.00068481
C        1.58722280       0.14924827      -0.00111085       0.00020147      -0.00237977      -0.00061630
H        2.03195864      -0.84661872      -0.00635447      -0.00043287       0.00066109       0.00360198
F       -0.53491861       1.24651010      -0.01033438       0.00123778      -0.00105707       0.00337249
Cl       0.88543890      -3.39675651       0.00603569      -0.00050197      -0.00038193      -0.00016305
H       -0.24798218      -0.56713807      -0.87777751      -0.00113173       0.00148985       0.00279851
H       -0.24989953      -0.55273097       0.88632969       0.00349898      -0.00246302      -0.00540624
H        1.91405155       0.69490750       0.88785996      -0.00213133       0.00382493      -0.00088743
H        1.90859158       0.70242064      -0.88742268       0.00309776      -0.00123049      -0.00201515
9
Lattice="1.0 0.0 0.0 0.0 1.0 0.0 0.0 0.0 1.0" Properties=species:S:1:pos:R:3:forces:R:3 R1=H R2=H R3=CH3 R4=CH3 leaving_group=Cl nucleophile=Cl rxn=sn2 config=rcc label=H_H_CH3_CH3_Cl_Cl_sn2_rcc conformation=0 reactant_id=H_H_CH3_CH3_Cl_none_-_r product_id=H_H_CH3_CH3_none_Cl_sn2_pc mp2_author_energy=-29302.391748605172 mp2_my_energy=0 hash=59123 address=T id=71 energy=-17372.331371961227 free_energy=-17372.331371961227 cell="(1,0,0), (0,1,0), (0,0,1)" stress="-1.0873065909058819e-10 2.817138531218578e-09 -2.438840006557086e-10 2.817138531218578e-09 -1.1869219877942388e-11 6.845085930259886e-09 -2.438840006557086e-10 6.845085930259886e-09 2.5963470991179577e-10" pbc="F F F"
C        0.09077251      -0.01941800       0.01629839      -0.00021255       0.00028602      -0.00090256
C        1.58687740       0.14903577       0.01033614      -0.00015407      -0.00031885      -0.00066329
H        2.03104121      -0.84590018       0.05961420      -0.00068405      -0.00080151      -0.00372398
F       -0.53537018       1.24600807      -0.04695926       0.00023463       0.00075314       0.00205311
Cl       0.88809426      -3.39833399      -0.09253393       0.00154482       0.00008582       0.00551508
H       -0.24763904      -0.60462579      -0.83612967      -0.00057777       0.00247839      -0.00238989
H       -0.25204160      -0.51159819       0.92526407      -0.00032221      -0.00186971      -0.00204187
H        1.91127732       0.74568800       0.86716608       0.00027873      -0.00325130       0.00132352
H        1.91287964       0.64840989      -0.90564356      -0.00010752       0.00263800       0.00082988
9
Lattice="1.0 0.0 0.0 0.0 1.0 0.0 0.0 0.0 1.0" Properties=species:S:1:pos:R:3:forces:R:3 R1=H R2=H R3=CH3 R4=CH3 leaving_group=Cl nucleophile=Cl rxn=sn2 config=rcc label=H_H_CH3_CH3_Cl_Cl_sn2_rcc conformation=0 reactant_id=H_H_CH3_CH3_Cl_none_-_r product_id=H_H_CH3_CH3_none_Cl_sn2_pc mp2_author_energy=-29302.391748605172 mp2_my_energy=0 hash=59123 address=T id=71 energy=-17372.32892814921 free_energy=-17372.32892814921 cell="(1,0,0), (0,1,0), (0,0,1)" stress="-2.2387873087794439e-10 9.495150483983388e-09 -3.5355340245021727e-10 9.495150483983388e-09 -6.7144335022229245e-09 1.1574782785771049e-08 -3.5355340245021727e-10 1.1574782785771049e-08 1.0297437263111362e-09" pbc="F F F"
C        0.08837707      -0.01538006       0.03536761      -0.00071293       0.00131377      -0.00125488
C        1.58519380       0.14733929       0.02372352      -0.00054303      -0.00072869      -0.00104727
H        2.02730465      -0.84385529       0.13049087      -0.00226584      -0.00276662      -0.00925620
F       -0.53281635       1.24723301      -0.09291146       0.00078638       0.00231459       0.00066166
Cl       0.90115469      -3.40832951      -0.20526883       0.00518959      -0.00240942       0.00912617
H       -0.24940345      -0.64448603      -0.78493879      -0.00151367       0.00313299      -0.00247212
H       -0.25830921      -0.45583775       0.96965205      -0.00137611       0.00012853      -0.00203414
H        1.90946290       0.79587523       0.84227785       0.00141371      -0.00794786       0.00433641
H        1.91492742       0.58670671      -0.92098038      -0.00097811       0.00696269       0.00194037
9
Lattice="1.0 0.0 0.0 0.0 1.0 0.0 0.0 0.0 1.0" Properties=species:S:1:pos:R:3:forces:R:3 R1=H R2=H R3=CH3 R4=CH3 leaving_group=Cl nucleophile=Cl rxn=sn2 config=rcc label=H_H_CH3_CH3_Cl_Cl_sn2_rcc conformation=0 reactant_id=H_H_CH3_CH3_Cl_none_-_r product_id=H_H_CH3_CH3_none_Cl_sn2_pc mp2_author_energy=-29302.391748605172 mp2_my_energy=0 hash=59123 address=T id=71 energy=-17372.323201680236 free_energy=-17372.323201680236 cell="(1,0,0), (0,1,0), (0,0,1)" stress="1.2423381820652343e-09 2.134763282180266e-08 -9.391965137688185e-10 2.134763282180266e-08 -3.506399028233914e-08 1.5938118078806845e-08 -9.391965137688185e-10 1.5938118078806845e-08 9.578440130079666e-10" pbc="F F F"
C        0.08906486      -0.01868374       0.05220498      -0.00151267       0.00406140      -0.00079669
C        1.58595782       0.14719819       0.03600271      -0.00136464      -0.00048530      -0.00102159
H        2.03357687      -0.82858745       0.22582180      -0.00552446      -0.00835836      -0.02539876
F       -0.53366836       1.23860644      -0.11319489       0.00163267       0.00421030      -0.01124734
Cl       0.89150648      -3.39545411      -0.31495769       0.01171300      -0.01311453       0.01200758
H       -0.24718963      -0.67409399      -0.74729738      -0.00181874      -0.00157146       0.00370787
H       -0.25643644      -0.42918103       1.00085211      -0.00366915       0.01246180       0.00210694
H        1.90011639       0.86597922       0.79820650       0.00536136      -0.01963074       0.01560143
H        1.92296351       0.50348206      -0.94022569      -0.00481737       0.02242688       0.00504056
9
Lattice="1.0 0.0 0.0 0.0 1.0 0.0 0.0 0.0 1.0" Properties=species:S:1:pos:R:3:forces:R:3 R1=H R2=H R3=CH3 R4=CH3 leaving_group=Cl nucleophile=Cl rxn=sn2 config=rcc label=H_H_CH3_CH3_Cl_Cl_sn2_rcc conformation=0 reactant_id=H_H_CH3_CH3_Cl_none_-_r product_id=H_H_CH3_CH3_none_Cl_sn2_pc mp2_author_energy=-29302.391748605172 mp2_my_energy=0 hash=59123 address=T id=71 energy=-17372.312030064124 free_energy=-17372.312030064124 cell="(1,0,0), (0,1,0), (0,0,1)" stress="6.2873861894285955e-09 2.628653845393573e-08 -2.4357958830925744e-09 2.628653845393573e-08 -7.113935609614738e-08 1.9500112734966947e-08 -2.4357958830925744e-09 1.9500112734966947e-08 -3.9819363928385694e-10" pbc="F F F"
C        0.09185260      -0.02791797       0.05718555      -0.00155127       0.00652995      -0.00019107
C        1.58875649       0.14697266       0.04038402      -0.00203213       0.00101517      -0.00076118
H        2.04583917      -0.80658263       0.30375304      -0.00816081      -0.01628437      -0.04484289
F       -0.53677509       1.22903135      -0.08868600       0.00185798       0.00497370      -0.02805462
Cl       0.86763906      -3.36113663      -0.36282844       0.01463468      -0.02617732       0.01408502
H       -0.24475516      -0.67316064      -0.74982897       0.00025690      -0.01066609       0.01211172
H       -0.24874632      -0.45333297       1.00102108      -0.00477832       0.02762895       0.00862928
H        1.88612143       0.92318102       0.75141853       0.00939990      -0.03109229       0.03194565
H        1.93595932       0.43221140      -0.95500635      -0.00962692       0.04407229       0.00707809
9
Lattice="1.0 0.0 0.0 0.0 1.0 0.0 0.0 0.0 1.0" Properties=species:S:1:pos:R:3:forces:R:3 R1=H R2=H R3=CH3 R4=CH3 leaving_group=Cl nucleophile=Cl rxn=sn2 config=rcc label=H_H_CH3_CH3_Cl_Cl_sn2_rcc conformation=0 reactant_id=H_H_CH3_CH3_Cl_none_-_r product_id=H_H_CH3_CH3_none_Cl_sn2_pc mp2_author_energy=-29302.391748605172 mp2_my_energy=0 hash=59123 address=T id=71 energy=-17372.295686337602 free_energy=-17372.295686337602 cell="(1,0,0), (0,1,0), (0,0,1)" stress="1.2738958466668153e-08 2.6162343306444764e-08 -3.917101737967609e-09 2.6162343306444764e-08 -9.688012899073094e-08 2.2170887103590727e-08 -3.917101737967609e-09 2.2170887103590727e-08 -2.0013013115572688e-09" pbc="F F F"
C        0.09338426      -0.03600542       0.05863610      -0.00109902       0.00794299       0.00029258
C        1.59116721       0.14501578       0.04204151      -0.00254361       0.00251159      -0.00058659
H        2.05605935      -0.78376407       0.37033401      -0.00970837      -0.02518238      -0.05977394
F       -0.53870083       1.22337843      -0.05137589       0.00174276       0.00550705      -0.04312593
Cl       0.85101021      -3.32696756      -0.38892121       0.01481737      -0.03482282       0.01513337
H       -0.24644853      -0.65895294      -0.76391784       0.00287891      -0.02033263       0.01894592
H       -0.24308873      -0.48796238       0.99132786      -0.00446427       0.03962514       0.01540985
H        1.87317125       0.96837900       0.70454552       0.01175877      -0.03802422       0.04754032
H        1.94933732       0.36614476      -0.96525761      -0.01338254       0.06277528       0.00616441
9
Lattice="1.0 0.0 0.0 0.0 1.0 0.0 0.0 0.0 1.0" Properties=species:S:1:pos:R:3:forces:R:3 R1=H R2=H R3=CH3 R4=CH3 leaving_group=Cl nucleophile=Cl rxn=sn2 config=rcc label=H_H_CH3_CH3_Cl_Cl_sn2_rcc conformation=0 reactant_id=H_H_CH3_CH3_Cl_none_-_r product_id=H_H_CH3_CH3_none_Cl_sn2_pc mp2_author_energy=-29302.391748605172 mp2_my_energy=0 hash=59123 address=T id=71 energy=-17372.272723525453 free_energy=-17372.272723525453 cell="(1,0,0), (0,1,0), (0,0,1)" stress="1.884214612008804e-08 2.4713690766056498e-08 -4.808020675911185e-09 2.4713690766056498e-08 -1.233578961607696e-07 2.239595833786867e-08 -4.808020675911185e-09 2.239595833786867e-08 -1.7260960164773076e-09" pbc="F F F"
C        0.09418224      -0.04420126       0.05921415      -0.00061354       0.00932147       0.00082523
C        1.59368436       0.14179076       0.04314007      -0.00291893       0.00421184      -0.00044938
H        2.06595641      -0.75601637       0.43861137      -0.01071438      -0.03306508      -0.06965659
F       -0.54022879       1.21798896      -0.00581120       0.00130356       0.00688703      -0.05516334
Cl       0.83716597      -3.28911962      -0.41035037       0.01425068      -0.04407367       0.01472398
H       -0.25037429      -0.63775479      -0.78241702       0.00518721      -0.02835316       0.02393620
H       -0.23886820      -0.52854423       0.97638221      -0.00354045       0.04881993       0.02173511
H        1.86048244       1.01111795       0.65074349       0.01311801      -0.04097684       0.06047431
H        1.96389137       0.29400419      -0.97210025      -0.01607215       0.07722848       0.00357447
9
Lattice="1.0 0.0 0.0 0.0 1.0 0.0 0.0 0.0 1.0" Properties=species:S:1:pos:R:3:forces:R:3 R1=H R2=H R3=CH3 R4=CH3 leaving_group=Cl nucleophile=Cl rxn=sn2 config=rcc label=H_H_CH3_CH3_Cl_Cl_sn2_rcc conformation=0 reactant_id=H_H_CH3_CH3_Cl_none_-_r product_id=H_H_CH3_CH3_none_Cl_sn2_pc mp2_author_energy=-29302.391748605172 mp2_my_energy=0 hash=59123 address=T id=71 energy=-17372.255914623856 free_energy=-17372.255914623856 cell="(1,0,0), (0,1,0), (0,0,1)" stress="2.149001590923727e-08 2.464071403621065e-08 -5.0285595387269735e-09 2.464071403621065e-08 -1.4823308506495453e-07 1.9762789705578384e-08 -5.0285595387269735e-09 1.9762789705578384e-08 -2.2771201696107113e-09" pbc="F F F"
C        0.09434778      -0.04937400       0.05910934      -0.00048072       0.01081057       0.00127859
C        1.59525458       0.13913485       0.04357870      -0.00307442       0.00581691      -0.00028535
H        2.07183554      -0.73670157       0.48019622      -0.01182024      -0.03737599      -0.07172716
F       -0.54082110       1.21433754       0.02558900       0.00007461       0.00876970      -0.05993199
Cl       0.83001029      -3.26371947      -0.42091407       0.01418911      -0.05242294       0.01317762
H       -0.25374975      -0.62167993      -0.79541988       0.00658519      -0.03133980       0.02549508
H       -0.23711968      -0.55573364       0.96457901      -0.00266204       0.05250608       0.02505768
H        1.85297771       1.03528542       0.61484323       0.01445319      -0.03941268       0.06641469
H        1.97315615       0.24771641      -0.97414908      -0.01726468       0.08264816       0.00052083
9
Lattice="1.0 0.0 0.0 0.0 1.0 0.0 0.0 0.0 1.0" Properties=species:S:1:pos:R:3:forces:R:3 R1=H R2=H R3=CH3 R4=CH3 leaving_group=Cl nucleophile=Cl rxn=sn2 config=rcc label=H_H_CH3_CH3_Cl_Cl_sn2_rcc conformation=0 reactant_id=H_H_CH3_CH3_Cl_none_-_r product_id=H_H_CH3_CH3_none_Cl_sn2_pc mp2_author_energy=-29302.391748605172 mp2_my_energy=0 hash=59123 address=T id=71 energy=-17372.240233745586 free_energy=-17372.240233745586 cell="(1,0,0), (0,1,0), (0,0,1)" stress="2.059221358738578e-08 2.6301763431828775e-08 -5.5788294004238375e-09 2.6301763431828775e-08 -1.8687606195153838e-07 1.434023346742901e-08 -5.5788294004238375e-09 1.434023346742901e-08 -7.591790062087843e-09" pbc="F F F"
C        0.09441920      -0.05427448       0.05880642      -0.00081855       0.01330510       0.00178678
C        1.59661577       0.13625104       0.04385945      -0.00344987       0.00827307       0.00004748
H        2.07716566      -0.71868739       0.51535520      -0.01372429      -0.04275863      -0.06937602
F       -0.54075596       1.21050636       0.05374528      -0.00314653       0.01225398      -0.06202722
Cl       0.82416459      -3.23928507      -0.42887073       0.01494972      -0.06337615       0.01061469
H       -0.25717000      -0.60695369      -0.80690356       0.00797897      -0.03278051       0.02518990
H       -0.23608884      -0.57985295       0.95328146      -0.00162961       0.05376678       0.02772135
H        1.84621110       1.05442723       0.58247864       0.01819740      -0.03322480       0.07118200
H        1.98133000       0.20713455      -0.97433972      -0.01835725       0.08454117      -0.00513895
9
Lattice="1.0 0.0 0.0 0.0 1.0 0.0 0.0 0.0 1.0" Properties=species:S:1:pos:R:3:forces:R:3 R1=H R2=H R3=CH3 R4=CH3 leaving_group=Cl nucleophile=Cl rxn=sn2 config=rcc label=H_H_CH3_CH3_Cl_Cl_sn2_rcc conformation=0 reactant_id=H_H_CH3_CH3_Cl_none_-_r product_id=H_H_CH3_CH3_none_Cl_sn2_pc mp2_author_energy=-29302.391748605172 mp2_my_energy=0 hash=59123 address=T id=71 energy=-17372.18916575917 free_energy=-17372.18916575917 cell="(1,0,0), (0,1,0), (0,0,1)" stress="1.702334092666749e-08 3.696366110464952e-08 -7.258030576858295e-09 3.696366110464952e-08 -3.8516503580406237e-07 -3.0685665554888296e-08 -7.258030576858295e-09 -3.0685665554888296e-08 -6.411910292867965e-09" pbc="F F F"
C        0.09509140      -0.07205840       0.05720718      -0.00649952       0.03489613       0.00501253
C        1.60115094       0.12448045       0.04423260      -0.00740004       0.02444576       0.00342026
H        2.09541770      -0.65779473       0.61593145      -0.03680760      -0.04736023      -0.05293425
F       -0.53620430       1.19450789       0.14002234      -0.02131555       0.02248096      -0.05445078
Cl       0.80589733      -3.15283906      -0.44885349       0.02802228      -0.12431410      -0.00642690
H       -0.26914644      -0.56122489      -0.84052922       0.01471346      -0.02920272       0.02479365
H       -0.23444098      -0.65290704       0.91616559       0.00351242       0.05367091       0.02382934
H        1.82119053       1.10241307       0.48015697       0.05606191      -0.00622707       0.06770032
H        2.00693533       0.08468830      -0.96692097      -0.03028736       0.07161036      -0.01094416
9
Lattice="1.0 0.0 0.0 0.0 1.0 0.0 0.0 0.0 1.0" Properties=species:S:1:pos:R:3:forces:R:3 R1=H R2=H R3=CH3 R4=CH3 leaving_group=Cl nucleophile=Cl rxn=sn2 config=rcc label=H_H_CH3_CH3_Cl_Cl_sn2_rcc conformation=0 reactant_id=H_H_CH3_CH3_Cl_none_-_r product_id=H_H_CH3_CH3_none_Cl_sn2_pc mp2_author_energy=-29302.391748605172 mp2_my_energy=0 hash=59123 address=T id=71 energy=-17371.9793421766 free_energy=-17371.9793421766 cell="(1,0,0), (0,1,0), (0,0,1)" stress="3.327426439465147e-07 -2.1728583675836275e-07 -1.4795491922096569e-08 -2.1728583675836275e-07 -2.1769649047337027e-06 -4.61089416446407e-07 -1.4795491922096569e-08 -4.61089416446407e-07 1.6737585205006136e-07" pbc="F F F"
C        0.10831120      -0.14581370       0.04780194      -0.23007688       0.59676010       0.09807698
C        1.61671732       0.07194910       0.03759713      -0.10267058       0.19389596       0.02973886
H        2.17273130      -0.55026617       0.73948565      -0.29268239      -0.05393326      -0.03273775
F       -0.49084457       1.14741283       0.26155749      -0.00738547      -0.13251750      -0.01504777
Cl       0.74914078      -2.88879475      -0.44395706       0.15457177      -0.65409487      -0.12025489
H       -0.30206108      -0.49530611      -0.89336692       0.09980621      -0.12294575       0.09365077
H       -0.24250966      -0.76875000       0.86514417       0.07258231      -0.01916865      -0.11387527
H        1.70165447       1.12018369       0.32476215       0.49733269       0.20497163       0.04284092
H        2.07275174      -0.08134930      -0.94161209      -0.19147765      -0.01296765       0.01760816
9
Lattice="1.0 0.0 0.0 0.0 1.0 0.0 0.0 0.0 1.0" Properties=species:S:1:pos:R:3:forces:R:3 R1=H R2=H R3=CH3 R4=CH3 leaving_group=Cl nucleophile=Cl rxn=sn2 config=rcc label=H_H_CH3_CH3_Cl_Cl_sn2_rcc conformation=0 reactant_id=H_H_CH3_CH3_Cl_none_-_r product_id=H_H_CH3_CH3_none_Cl_sn2_pc mp2_author_energy=-29302.391748605172 mp2_my_energy=0 hash=59123 address=T id=71 energy=-17371.305722174708 free_energy=-17371.305722174708 cell="(1,0,0), (0,1,0), (0,0,1)" stress="9.245802035311783e-07 -1.4791759794813294e-06 -2.3336560519306885e-07 -1.4791759794813294e-06 -2.1897655218850583e-06 -5.755017438653383e-07 -2.3336560519306885e-07 -5.755017438653383e-07 1.9511787140491126e-07" pbc="F F F"
C        0.16169164      -0.28370572       0.02506057      -1.10554023       2.87552849       0.49406220
C        1.64020214       0.02695411       0.03079057      -0.17183240       0.28686212       0.04187794
H        2.24013101      -0.53657328       0.74848998      -0.35818603      -0.07083326      -0.05060621
F       -0.48922045       1.17789308       0.26633910       0.60932751      -1.38064838      -0.19477404
Cl       0.71346480      -2.73728788      -0.41715049       0.25123344      -1.23291602      -0.22505843
H       -0.32524153      -0.46619334      -0.91509939       0.13788561      -0.44756583       0.00829950
H       -0.25926470      -0.76498842       0.89135830       0.11616424      -0.30728750      -0.17386227
H        1.58661340       1.07343481       0.31294649       0.75424776       0.33457325       0.06375106
H        2.11751519      -0.08026776      -0.94532268      -0.23329990      -0.05771286       0.03631026
9
Lattice="1.0 0.0 0.0 0.0 1.0 0.0 0.0 0.0 1.0" Properties=species:S:1:pos:R:3:forces:R:3 R1=H R2=H R3=CH3 R4=CH3 leaving_group=Cl nucleophile=Cl rxn=sn2 config=rcc label=H_H_CH3_CH3_Cl_Cl_sn2_rcc conformation=0 reactant_id=H_H_CH3_CH3_Cl_none_-_r product_id=H_H_CH3_CH3_none_Cl_sn2_pc mp2_author_energy=-29302.391748605172 mp2_my_energy=0 hash=59123 address=T id=71 energy=-17370.653441562376 free_energy=-17370.653441562376 cell="(1,0,0), (0,1,0), (0,0,1)" stress="4.334995752713561e-07 -1.3138718301600165e-06 -2.1412012587582015e-07 -1.3138718301600165e-06 -9.943926844320278e-07 -2.505259462889988e-07 -2.1412012587582015e-07 -2.505259462889988e-07 -2.0105214985145663e-07" pbc="F F F"
C        0.21171311      -0.41430155       0.00285187      -0.78579843       2.31922011       0.40362733
C        1.64818864       0.01402448       0.02879968      -0.04798530       0.17947792       0.02551751
H        2.25624916      -0.53311446       0.75099218      -0.19297669      -0.04564955      -0.02686461
F       -0.51688923       1.24050483       0.27544062       0.49067426      -1.07347144      -0.15802687
Cl       0.70207079      -2.68128988      -0.40711974       0.19032424      -0.90818539      -0.16891520
H       -0.33153072      -0.44577710      -0.91552439       0.00091180      -0.33485437      -0.14829775
H       -0.26445916      -0.75105691       0.89909648       0.00161973      -0.30308431       0.01903757
H        1.55236345       1.05825379       0.30967528       0.46330979       0.21277384       0.03815081
H        2.12818548      -0.07797761      -0.94679954      -0.12007940      -0.04622681       0.01577121
9
Lattice="1.0 0.0 0.0 0.0 1.0 0.0 0.0 0.0 1.0" Properties=species:S:1:pos:R:3:forces:R:3 R1=H R2=H R3=CH3 R4=CH3 leaving_group=Cl nucleophile=Cl rxn=sn2 config=rcc label=H_H_CH3_CH3_Cl_Cl_sn2_rcc conformation=0 reactant_id=H_H_CH3_CH3_Cl_none_-_r product_id=H_H_CH3_CH3_none_Cl_sn2_pc mp2_author_energy=-29302.391748605172 mp2_my_energy=0 hash=59123 address=T id=71 energy=-17370.367982377287 free_energy=-17370.367982377287 cell="(1,0,0), (0,1,0), (0,0,1)" stress="6.768550907887392e-08 -3.5173333464069197e-07 -5.4763413294777036e-08 -3.5173333464069197e-07 -1.448890172823454e-07 -4.316179118399759e-08 -5.4763413294777036e-08 -4.316179118399759e-08 -9.334134694715416e-08" pbc="F F F"
C        0.25193856      -0.53302109      -0.01781715      -0.16093658       0.48969480       0.08505752
C        1.65064867       0.00484010       0.02746228      -0.00523860       0.04653634       0.00631069
H        2.26600304      -0.53052668       0.75262909      -0.04650043      -0.00763592      -0.00198828
F       -0.54203445       1.29540456       0.28385673       0.10478225      -0.23358420      -0.02918266
Cl       0.69233699      -2.63475356      -0.39866707       0.04544868      -0.20040382      -0.04000702
H       -0.33159757      -0.42853150      -0.90793706      -0.01459739      -0.06698594      -0.05150056
H       -0.26451815      -0.73561924       0.89809389      -0.01225323      -0.06853972       0.02324261
H        1.52862906       1.04746074       0.30731812       0.11483526       0.05697637       0.00415948
H        2.13448536      -0.07598773      -0.94752638      -0.02553995      -0.01605790       0.00390822
9
Lattice="1.0 0.0 0.0 0.0 1.0 0.0 0.0 0.0 1.0" Properties=species:S:1:pos:R:3:forces:R:3 R1=H R2=H R3=CH3 R4=CH3 leaving_group=Cl nucleophile=Cl rxn=sn2 config=rcc label=H_H_CH3_CH3_Cl_Cl_sn2_rcc conformation=0 reactant_id=H_H_CH3_CH3_Cl_none_-_r product_id=H_H_CH3_CH3_none_Cl_sn2_pc mp2_author_energy=-29302.391748605172 mp2_my_energy=0 hash=59123 address=T id=71 energy=-17370.398151481495 free_energy=-17370.398151481495 cell="(1,0,0), (0,1,0), (0,0,1)" stress="-4.9324022542725594e-08 5.265504613506558e-07 9.916514211541426e-08 5.265504613506558e-07 1.2309410823538622e-07 6.645117447080051e-09 9.916514211541426e-08 6.645117447080051e-09 1.741549737612264e-07" pbc="F F F"
C        0.28524617      -0.63796852      -0.03621767       0.19008171      -0.59870113      -0.10560148
C        1.65062393      -0.00720383       0.02560856      -0.00005339      -0.06862043      -0.01134747
H        2.27632453      -0.52738847       0.75421342       0.05619791       0.02278151       0.01402603
F       -0.56502118       1.34673856       0.29179401      -0.13175023       0.29178800       0.05209835
Cl       0.68138014      -2.58934768      -0.39049679      -0.06237968       0.25989920       0.04319409
H       -0.32503959      -0.41432526      -0.89203398       0.03700801       0.08272752       0.09060097
H       -0.25864954      -0.72034041       0.88825494       0.03397734       0.08611772      -0.05664349
H        1.49973127       1.03309190       0.30418809      -0.16524681      -0.08010133      -0.02564129
H        2.14129579      -0.07399070      -0.94789813       0.04216514       0.00410894      -0.00068571
9
Lattice="1.0 0.0 0.0 0.0 1.0 0.0 0.0 0.0 1.0" Properties=species:S:1:pos:R:3:forces:R:3 R1=H R2=H R3=CH3 R4=CH3 leaving_group=Cl nucleophile=Cl rxn=sn2 config=rcc label=H_H_CH3_CH3_Cl_Cl_sn2_rcc conformation=0 reactant_id=H_H_CH3_CH3_Cl_none_-_r product_id=H_H_CH3_CH3_none_Cl_sn2_pc mp2_author_energy=-29302.391748605172 mp2_my_energy=0 hash=59123 address=T id=71 energy=-17370.52244923121 free_energy=-17370.52244923121 cell="(1,0,0), (0,1,0), (0,0,1)" stress="-1.0571568626416542e-09 7.225897784576948e-07 1.353971334522575e-07 7.225897784576948e-07 -3.3430706864665347e-07 -7.994118568639174e-08 1.353971334522575e-07 -7.994118568639174e-08 2.0256312046248652e-07" pbc="F F F"
C        0.31642711      -0.72430846      -0.05113482       0.15247286      -0.42207537      -0.07383531
C        1.65289178      -0.02678301       0.02235773       0.01113344      -0.09559942      -0.01675381
H        2.29419894      -0.51953981       0.75787654       0.08448800       0.04310514       0.02261156
F       -0.59115135       1.41607966       0.30196704      -0.12835069       0.33776557       0.05682316
Cl       0.66675735      -2.56353615      -0.38696872      -0.07133675       0.12707627       0.01430600
H       -0.30920222      -0.40108509      -0.86902723       0.07703868       0.06599363       0.11224627
H       -0.24314446      -0.70716039       0.87269769       0.07623823       0.06386498      -0.07658152
H        1.44530762       1.00633531       0.29789486      -0.26633938      -0.12896390      -0.03837210
H        2.15380674      -0.07073648      -0.94825063       0.06465560       0.00883308      -0.00044425
9
Lattice="1.0 0.0 0.0 0.0 1.0 0.0 0.0 0.0 1.0" Properties=species:S:1:pos:R:3:forces:R:3 R1=H R2=H R3=CH3 R4=CH3 leaving_group=Cl nucleophile=Cl rxn=sn2 config=rcc label=H_H_CH3_CH3_Cl_Cl_sn2_rcc conformation=0 reactant_id=H_H_CH3_CH3_Cl_none_-_r product_id=H_H_CH3_CH3_none_Cl_sn2_pc mp2_author_energy=-29302.391748605172 mp2_my_energy=0 hash=59123 address=T id=71 energy=-17370.588654226947 free_energy=-17370.588654226947 cell="(1,0,0), (0,1,0), (0,0,1)" stress="9.188481640598853e-08 2.8116663041788405e-07 5.257662562021333e-08 2.8116663041788405e-07 -4.2635022302210546e-07 -8.485079463698391e-08 5.257662562021333e-08 -8.485079463698391e-08 4.158492561010478e-08" pbc="F F F"
C        0.33911510      -0.77193690      -0.05844349       0.05436418      -0.11389734      -0.01848451
C        1.65661809      -0.04418368       0.01946507       0.00899263      -0.04156458      -0.00797511
H        2.31242320      -0.50120260       0.76622500       0.04073702       0.04814358       0.02403327
F       -0.60083369       1.49072483       0.31100893      -0.02387924       0.17739803       0.02911593
Cl       0.64654803      -2.57123771      -0.39415308      -0.04825957      -0.01778377      -0.01911588
H       -0.29006798      -0.39459679      -0.85162785       0.04559498       0.01616233       0.04095147
H       -0.22050575      -0.70926893       0.86480599       0.05452369      -0.00469647      -0.01974014
H        1.37416011       0.97620358       0.28699852      -0.17068492      -0.07057567      -0.03309374
H        2.16843439      -0.06523621      -0.94686663       0.03861122       0.00681388       0.00430871
9
Lattice="1.0 0.0 0.0 0.0 1.0 0.0 0.0 0.0 1.0" Properties=species:S:1:pos:R:3:forces:R:3 R1=H R2=H R3=CH3 R4=CH3 leaving_group=Cl nucleophile=Cl rxn=sn2 config=rcc label=H_H_CH3_CH3_Cl_Cl_sn2_rcc conformation=0 reactant_id=H_H_CH3_CH3_Cl_none_-_r product_id=H_H_CH3_CH3_none_Cl_sn2_pc mp2_author_energy=-29302.391748605172 mp2_my_energy=0 hash=59123 address=T id=71 energy=-17370.61228825798 free_energy=-17370.61228825798 cell="(1,0,0), (0,1,0), (0,0,1)" stress="1.101533218932236e-07 1.585275366871432e-08 2.8770954075255814e-09 1.585275366871432e-08 -2.1320653515091863e-07 -4.5955113079568915e-08 2.8770954075255814e-09 -4.5955113079568915e-08 -8.946324608204194e-09" pbc="F F F"
C        0.35165180      -0.79963530      -0.06030296       0.01313950      -0.02879265      -0.00313940
C        1.65530535      -0.05154277       0.01890027      -0.00134125      -0.00754583      -0.00177383
H        2.31825323      -0.47243656       0.78101961       0.00348995       0.03365540       0.01842835
F       -0.57734036       1.55340118       0.31286796       0.02441505       0.06440033       0.00999303
Cl       0.62966446      -2.58780283      -0.41342186      -0.01762767      -0.01725885      -0.02032741
H       -0.28159746      -0.39692790      -0.83823079       0.00914601      -0.00293283       0.01215384
H       -0.19983855      -0.73298086       0.86833316       0.02141564      -0.02342473       0.00222987
H        1.31211125       0.95842904       0.27046655      -0.06550399      -0.01746053      -0.02302433
H        2.17768180      -0.06123841      -0.94221950       0.01286677      -0.00064030       0.00545989
9
Lattice="1.0 0.0 0.0 0.0 1.0 0.0 0.0 0.0 1.0" Properties=species:S:1:pos:R:3:forces:R:3 R1=H R2=H R3=CH3 R4=CH3 leaving_group=Cl nucleophile=Cl rxn=sn2 config=rcc label=H_H_CH3_CH3_Cl_Cl_sn2_rcc conformation=0 reactant_id=H_H_CH3_CH3_Cl_none_-_r product_id=H_H_CH3_CH3_none_Cl_sn2_pc mp2_author_energy=-29302.391748605172 mp2_my_energy=0 hash=59123 address=T id=71 energy=-17370.621507447333 free_energy=-17370.621507447333 cell="(1,0,0), (0,1,0), (0,0,1)" stress="4.6348980403619055e-08 -1.1299334331437358e-08 -3.72951012917925e-09 -1.1299334331437358e-08 -5.985628618473122e-08 -1.1619810343066596e-08 -3.72951012917925e-09 -1.1619810343066596e-08 -5.665993100018979e-09" pbc="F F F"
C        0.35669177      -0.82098833      -0.05355282       0.00134895      -0.00582272       0.00063517