1
Properties=species:S:1:pos:R:3 mp2_energy=-13.600517822134075 free_energy=-13.600517822134075 config_type=IsolatedAtom pbc="F F F"
H        0.00000000       0.00000000       0.00000000
1
Properties=species:S:1:pos:R:3 mp2_energy=-1027.5647719688623 free_energy=-1027.5647719688623 config_type=IsolatedAtom pbc="F F F"
C        0.00000000       0.00000000       0.00000000
1
Properties=species:S:1:pos:R:3 mp2_energy=-2039.1187770138454 free_energy=-2039.1187770138454 config_type=IsolatedAtom pbc="F F F"
O        0.00000000       0.00000000       0.00000000
1
Properties=species:S:1:pos:R:3 mp2_energy=-2711.1240911830328 free_energy=-2711.1240911830328 config_type=IsolatedAtom pbc="F F F"
F        0.00000000       0.00000000       0.00000000
1
Properties=species:S:1:pos:R:3 mp2_energy=-12510.40325874303 free_energy=-12510.40325874303 config_type=IsolatedAtom pbc="F F F"
Cl       0.00000000       0.00000000       0.00000000
9
Lattice="1.0 0.0 0.0 0.0 1.0 0.0 0.0 0.0 1.0" Properties=species:S:1:pos:R:3:forces:R:3:mp2_forces:R:3 R1=H R2=H R3=CH3 R4=CH3 leaving_group=Cl nucleophile=Cl rxn=sn2 config=rcc label=H_H_CH3_CH3_Cl_Cl_sn2_rcc conformation=0 reactant_id=H_H_CH3_CH3_Cl_none_-_r product_id=H_H_CH3_CH3_none_Cl_sn2_pc mp2_author_energy=-29302.391748605172 mp2_my_energy=0 hash=59123 address=T id=71 energy=-17372.33216497299 free_energy=-17372.33216497299 cell="(1,0,0), (0,1,0), (0,0,1)" mp2_energy=-17372.2036540929 pbc="F F F"
C        0.12670941      -0.01257351       0.01976176      -0.00383810       0.00153641      -0.00068481       0.00361388       0.64513672      -2.23802418
C        1.63204066       0.18659943      -0.02065641       0.00020147      -0.00237977      -0.00061630      -1.04061228      -2.42703821       1.53675081
H        2.05096041      -0.84964586      -0.00841885      -0.00043287       0.00066109       0.00360198      -0.16412478       0.78304675       0.06366093
F       -0.52670664       1.24939097       0.01875109       0.00123778      -0.00105707       0.00337249       0.10269031      -0.03562223       0.18349627
Cl       0.90065965      -3.39432301       0.01491295      -0.00050197      -0.00038193      -0.00016305       0.00056424       0.01013998       0.00478294
H       -0.24130869      -0.53725649      -0.88188068      -0.00113173       0.00148985       0.00279851       0.37339629       0.21360466       0.35305788
H       -0.24363818      -0.56981288       0.83526989       0.00349898      -0.00246302      -0.00540624      -0.05221568      -0.52775515       1.24464357
H        1.92712392       0.71219622       0.87301666      -0.00213133       0.00382493      -0.00088743       0.37444448       0.32585796       0.30015796
H        1.95398667       0.67333333      -0.88650751       0.00309776      -0.00123049      -0.00201515       0.40224355       1.01262953      -1.44852619
9
Properties=species:S:1:pos:R:3:forces:R:3:mp2_forces:R:3 R1=H R2=H R3=CH3 R4=CH3 leaving_group=Cl nucleophile=Cl rxn=sn2 config=rcc label=H_H_CH3_CH3_Cl_Cl_sn2_rcc conformation=0 reactant_id=H_H_CH3_CH3_Cl_none_-_r product_id=H_H_CH3_CH3_none_Cl_sn2_pc mp2_author_energy=-29302.391748605172 mp2_my_energy=0 hash=59123 address=T id=71 energy=-17370.62224714096 free_energy=-17370.62224714096 mp2_energy=-17370.45773034177 pbc="F F F"
C        0.16070646       0.12070868       0.01928236       0.00024833       0.00082338      -0.00004111       0.15998979      -0.54498932      -3.47482476
C        1.66985653       0.04582584      -0.01797802      -0.00029781       0.00024352       0.00001820      -0.38254181      -2.06491178       0.69359092
H        2.01373195      -0.50907769       0.89148044      -0.00150856       0.00400384       0.00260653       0.00970326       0.59045841      -0.50283097
F        0.90609836       2.64437239       0.02466175      -0.00036934      -0.00051119       0.00019149      -0.02145904       0.00516061       0.01345685
Cl      -0.67982809      -1.53250692       0.01396946      -0.00149436       0.00253231      -0.00016929       0.23475406       0.16998188       0.02471807
H       -0.21638733       0.67580484      -0.87960204       0.00098313      -0.00352841      -0.00278458       0.44017461      -0.69045635       0.86978884
H       -0.21805754       0.63567465       0.81912401       0.00049392      -0.00400627       0.00274725      -0.58871324       1.17780754       2.15788626
H        1.90130199       1.09798215      -0.01544076       0.00441636      -0.00257230      -0.00014115       0.40759112       0.81790688      -0.04305712
H        2.04240490      -0.53940690      -0.88607318      -0.00247166       0.00301512      -0.00242734      -0.25949876       0.53904213       0.26127192
9
Lattice="1.0 0.0 0.0 0.0 1.0 0.0 0.0 0.0 1.0" Properties=species:S:1:pos:R:3:forces:R:3:mp2_forces:R:3 R1=H R2=H R3=CH3 R4=CH3 leaving_group=Cl nucleophile=Cl rxn=sn2 config=rcc label=H_H_CH3_CH3_Cl_Cl_sn2_rcc conformation=0 reactant_id=H_H_CH3_CH3_Cl_none_-_r product_id=H_H_CH3_CH3_none_Cl_sn2_pc mp2_author_energy=-29302.391748605172 mp2_my_energy=0 hash=59123 address=T id=71 energy=-17372.33216497299 free_energy=-17372.33216497299 cell="(1,0,0), (0,1,0), (0,0,1)" mp2_energy=-17372.104959622182 pbc="F F F"
C        0.12391527      -0.03281178      -0.01037644      -0.00383810       0.00153641      -0.00068481      -2.31866510       0.85613697      -1.24196171
C        1.56576343       0.16655642      -0.04714162       0.00020147      -0.00237977      -0.00061630       2.54024447      -1.38233472       2.98188848
H        2.06685488      -0.86184286       0.00002631      -0.00043287       0.00066109       0.00360198      -0.81046272       1.29222589      -0.21834778
F       -0.53990602       1.27575226      -0.05153719       0.00123778      -0.00105707       0.00337249       0.52315943      -0.97702184       0.17181910
Cl       0.87899056      -3.40443760       0.02871108      -0.00050197      -0.00038193      -0.00016305       0.00182320       0.01338153       0.00752039
H       -0.26998001      -0.57058663      -0.89533468      -0.00113173       0.00148985       0.00279851       0.40030677       0.22215434       0.49783842
H       -0.24905526      -0.54107467       0.86431731       0.00349898      -0.00246302      -0.00540624       0.10257382      -0.10054956       0.34697823
H        1.93694602       0.71293931       0.89790985      -0.00213133       0.00382493      -0.00088743      -0.64904973      -0.61128984      -1.37514122
H        1.92660870       0.68874608      -0.88988048       0.00309776      -0.00123049      -0.00201515       0.21006985       0.68729722      -1.17059391
9
Properties=species:S:1:pos:R:3:forces:R:3:mp2_forces:R:3 R1=H R2=H R3=CH3 R4=CH3 leaving_group=Cl nucleophile=Cl rxn=sn2 config=rcc label=H_H_CH3_CH3_Cl_Cl_sn2_rcc conformation=0 reactant_id=H_H_CH3_CH3_Cl_none_-_r product_id=H_H_CH3_CH3_none_Cl_sn2_pc mp2_author_energy=-29302.391748605172 mp2_my_energy=0 hash=59123 address=T id=71 energy=-17370.62224714096 free_energy=-17370.62224714096 mp2_energy=-17370.436555175656 pbc="F F F"
C        0.15791232       0.10047041      -0.01085584       0.00024833       0.00082338      -0.00004111      -2.54063904       0.96610059      -0.50596830
C        1.60357930       0.02578283      -0.04446323      -0.00029781       0.00024352       0.00001820       2.76438720      -0.93236199       2.29134496
H        2.02962642      -0.52127469       0.89992560      -0.00150856       0.00400384       0.00260653      -0.79693251       0.88609728      -1.47813024
F        0.89289898       2.67073368      -0.04562653      -0.00036934      -0.00051119       0.00019149       0.02987178      -0.05712888       0.03347818
Cl      -0.70149718      -1.54262151       0.02776759      -0.00149436       0.00253231      -0.00016929       0.22984532       0.11705047      -0.01996638
H       -0.24505865       0.64247470      -0.89305604       0.00098313      -0.00352841      -0.00278458       0.39904241      -0.48948351       0.60666527
H       -0.22347462       0.66441286       0.84817143       0.00049392      -0.00400627       0.00274725       0.34798697      -0.27038796      -0.24187656
H        1.91112409       1.09872524       0.00945243       0.00441636      -0.00257230      -0.00014115      -0.35390837      -0.35652038      -0.35132547
H        2.01502693      -0.52399415      -0.88944615      -0.00247166       0.00301512      -0.00242734      -0.07965377       0.13663439      -0.33422144
9
Lattice="1.0 0.0 0.0 0.0 1.0 0.0 0.0 0.0 1.0" Properties=species:S:1:pos:R:3:forces:R:3:mp2_forces:R:3 R1=H R2=H R3=CH3 R4=CH3 leaving_group=Cl nucleophile=Cl rxn=sn2 config=rcc label=H_H_CH3_CH3_Cl_Cl_sn2_rcc conformation=0 reactant_id=H_H_CH3_CH3_Cl_none_-_r product_id=H_H_CH3_CH3_none_Cl_sn2_pc mp2_author_energy=-29302.391748605172 mp2_my_energy=0 hash=59123 address=T id=71 energy=-17372.33216497299 free_energy=-17372.33216497299 cell="(1,0,0), (0,1,0), (0,0,1)" mp2_energy=-17372.18359406724 pbc="F F F"
C        0.08309320      -0.02170199      -0.04253692      -0.00383810       0.00153641      -0.00068481       0.92367941       0.69688613       3.31913802
C        1.62002822       0.11337956      -0.01794580       0.00020147      -0.00237977      -0.00061630      -1.57900469       1.35849984      -0.13363428
H        2.04201627      -0.87152448      -0.02751351      -0.00043287       0.00066109       0.00360198       0.28725321      -0.53763497       0.02811338
F       -0.55309876       1.25753918       0.03550978       0.00123778      -0.00105707       0.00337249       0.46864449      -0.48518383      -0.52923808
Cl       0.88626969      -3.41911502       0.01681686      -0.00050197      -0.00038193      -0.00016305      -0.00414684       0.01932833      -0.01627242
H       -0.25990537      -0.56752068      -0.85427749      -0.00113173       0.00148985       0.00279851      -0.72426850      -0.70593285      -1.88395235
H       -0.26485695      -0.55255046       0.86876753       0.00349898      -0.00246302      -0.00540624       0.33744017       0.17873025      -0.59700627
H        1.91092287       0.70003891       0.86808438      -0.00213133       0.00382493      -0.00088743       0.02098545      -0.35517001      -0.17382059
H        1.90181514       0.69769696      -0.90017578       0.00309776      -0.00123049      -0.00201515       0.26941729      -0.16952289      -0.01332741
9
Properties=species:S:1:pos:R:3:forces:R:3:mp2_forces:R:3 R1=H R2=H R3=CH3 R4=CH3 leaving_group=Cl nucleophile=Cl rxn=sn2 config=rcc label=H_H_CH3_CH3_Cl_Cl_sn2_rcc conformation=0 reactant_id=H_H_CH3_CH3_Cl_none_-_r product_id=H_H_CH3_CH3_none_Cl_sn2_pc mp2_author_energy=-29302.391748605172 mp2_my_energy=0 hash=59123 address=T id=71 energy=-17370.62224714096 free_energy=-17370.62224714096 mp2_energy=-17370.465091824182 pbc="F F F"
C        0.11709025       0.11158020      -0.04301632       0.00024833       0.00082338      -0.00004111       1.33279535      -1.12302904       3.00901058
C        1.65784409      -0.02739403      -0.01526741      -0.00029781       0.00024352       0.00001820      -1.75426129       2.11279497       0.08395328
H        2.00478781      -0.53095631       0.87238578      -0.00150856       0.00400384       0.00260653       0.11379860      -0.22963778       0.36232544
F        0.87970624       2.65252060       0.04142044      -0.00036934      -0.00051119       0.00019149       0.02903191      -0.12988333      -0.03629077
Cl      -0.69421805      -1.55729893       0.01587337      -0.00149436       0.00253231      -0.00016929      -0.00641406       0.25485644      -0.20478981
H       -0.23498401       0.64554065      -0.85199885       0.00098313      -0.00352841      -0.00278458      -0.59078486       0.87156000      -1.91593659
H       -0.23927631       0.65293707       0.85262165       0.00049392      -0.00400627       0.00274725       0.38101223      -0.37322626      -0.56897865
H        1.88510094       1.08582484      -0.02037304       0.00441636      -0.00257230      -0.00014115       0.00116986      -0.82736499       0.08729123
H        1.99023337      -0.51504327      -0.89974145      -0.00247166       0.00301512      -0.00242734       0.49365225      -0.55607000      -0.81658471
9
Lattice="1.0 0.0 0.0 0.0 1.0 0.0 0.0 0.0 1.0" Properties=species:S:1:pos:R:3:forces:R:3:mp2_forces:R:3 R1=H R2=H R3=CH3 R4=CH3 leaving_group=Cl nucleophile=Cl rxn=sn2 config=rcc label=H_H_CH3_CH3_Cl_Cl_sn2_rcc conformation=0 reactant_id=H_H_CH3_CH3_Cl_none_-_r product_id=H_H_CH3_CH3_none_Cl_sn2_pc mp2_author_energy=-29302.391748605172 mp2_my_energy=0 hash=59123 address=T id=71 energy=-17372.33216497299 free_energy=-17372.33216497299 cell="(1,0,0), (0,1,0), (0,0,1)" mp2_energy=-17372.156127891943 pbc="F F F"
C        0.12720093      -0.01184645       0.00211695      -0.00383810       0.00153641      -0.00068481      -3.22725100      -1.64823264      -1.18297095
C        1.54995295       0.14370051      -0.00820603       0.00020147      -0.00237977      -0.00061630       3.09862666       0.30624119       1.17749419
H        2.03030381      -0.85915873      -0.00723083      -0.00043287       0.00066109       0.00360198      -0.41395034       0.58151746       0.05121403
F       -0.54446297       1.22023280       0.00735807       0.00123778      -0.00105707       0.00337249       0.03551435       0.48612480       0.04798243
Cl       0.90306526      -3.36256505       0.00703636      -0.00050197      -0.00038193      -0.00016305       0.01171306      -0.04372244       0.00230189
H       -0.25607573      -0.57804527      -0.90870706      -0.00113173       0.00148985       0.00279851       0.63092509       0.67793117       1.10221471
H       -0.23025218      -0.57475232       0.86262876       0.00349898      -0.00246302      -0.00540624       0.07726834       0.00025051       0.08773135
H        1.90993855       0.72463047       0.89259429      -0.00213133       0.00382493      -0.00088743      -0.36403172      -0.62397452      -0.77005844
H        1.88811588       0.68816078      -0.87491778       0.00309776      -0.00123049      -0.00201515       0.15118555       0.26386448      -0.51590920
9
Properties=species:S:1:pos:R:3:forces:R:3:mp2_forces:R:3 R1=H R2=H R3=CH3 R4=CH3 leaving_group=Cl nucleophile=Cl rxn=sn2 config=rcc label=H_H_CH3_CH3_Cl_Cl_sn2_rcc conformation=0 reactant_id=H_H_CH3_CH3_Cl_none_-_r product_id=H_H_CH3_CH3_none_Cl_sn2_pc mp2_author_energy=-29302.391748605172 mp2_my_energy=0 hash=59123 address=T id=71 energy=-17370.62224714096 free_energy=-17370.62224714096 mp2_energy=-17370.45307523151 pbc="F F F"
C        0.16119798       0.12143574       0.00163755       0.00024833       0.00082338      -0.00004111      -2.39742983       0.13530076      -1.81698813
C        1.58776882       0.00292692      -0.00552764      -0.00029781       0.00024352       0.00001820       3.04977624       0.65623905       0.69054247
H        1.99307535      -0.51859056       0.89266846      -0.00150856       0.00400384       0.00260653      -0.32979056       0.31129196      -0.39819826
F        0.88834203       2.61521422       0.01326873      -0.00036934      -0.00051119       0.00019149       0.07035163       0.10163983       0.02027554
Cl      -0.67742248      -1.50074896       0.00609287      -0.00149436       0.00253231      -0.00016929      -0.25916255      -0.62477912       0.04935336
H       -0.23115437       0.63501606      -0.90642842       0.00098313      -0.00352841      -0.00278458       0.51637215      -0.28312579       0.91667081
H       -0.20467154       0.63073521       0.84648288       0.00049392      -0.00400627       0.00274725      -0.31366420       0.72653191       0.88138628
H        1.88411662       1.11041640       0.00413687       0.00441636      -0.00257230      -0.00014115      -0.35601151      -1.01650496      -0.08538163
H        1.97653411      -0.52457945      -0.87448345      -0.00247166       0.00301512      -0.00242734       0.01955863      -0.00659364      -0.25766045
9
Lattice="1.0 0.0 0.0 0.0 1.0 0.0 0.0 0.0 1.0" Properties=species:S:1:pos:R:3:forces:R:3:mp2_forces:R:3 R1=H R2=H R3=CH3 R4=CH3 leaving_group=Cl nucleophile=Cl rxn=sn2 config=rcc label=H_H_CH3_CH3_Cl_Cl_sn2_rcc conformation=0 reactant_id=H_H_CH3_CH3_Cl_none_-_r product_id=H_H_CH3_CH3_none_Cl_sn2_pc mp2_author_energy=-29302.391748605172 mp2_my_energy=0 hash=59123 address=T id=71 energy=-17372.33216497299 free_energy=-17372.33216497299 cell="(1,0,0), (0,1,0), (0,0,1)" mp2_energy=-17372.244711742384 pbc="F F F"
C        0.09243959      -0.01057762      -0.01973118      -0.00383810       0.00153641      -0.00068481       0.43802457       0.54837632       0.97955076
C        1.60109477       0.14088224      -0.03280239       0.00020147      -0.00237977      -0.00061630      -1.00730734       0.88052088       1.57013212
H        2.01900450      -0.83464722       0.00029053      -0.00043287       0.00066109       0.00360198       0.44751274      -0.95203529      -0.12586435
F       -0.55786814       1.25888349      -0.01209412       0.00123778      -0.00105707       0.00337249       0.33140748      -0.46973360      -0.13910680
Cl       0.89394035      -3.39011145      -0.01710064      -0.00050197      -0.00038193      -0.00016305      -0.00653905       0.00901721      -0.00001878
H       -0.24096224      -0.57927582      -0.84683792      -0.00113173       0.00148985       0.00279851      -0.47069332      -0.35054904      -1.10652364
H       -0.23543270      -0.55180826       0.86666986       0.00349898      -0.00246302      -0.00540624       0.06816274       0.11737591       0.09215765
H        1.91514020       0.69810536       0.86368100      -0.00213133       0.00382493      -0.00088743      -0.06630329      -0.20351198      -0.06223233
H        1.95305878       0.71030654      -0.85357553       0.00309776      -0.00123049      -0.00201515       0.26573547       0.42053960      -1.20809462
9
Properties=species:S:1:pos:R:3:forces:R:3:mp2_forces:R:3 R1=H R2=H R3=CH3 R4=CH3 leaving_group=Cl nucleophile=Cl rxn=sn2 config=rcc label=H_H_CH3_CH3_Cl_Cl_sn2_rcc conformation=0 reactant_id=H_H_CH3_CH3_Cl_none_-_r product_id=H_H_CH3_CH3_none_Cl_sn2_pc mp2_author_energy=-29302.391748605172 mp2_my_energy=0 hash=59123 address=T id=71 energy=-17370.62224714096 free_energy=-17370.62224714096 mp2_energy=-17370.499696885643 pbc="F F F"
C        0.12643664       0.12270457      -0.02021058       0.00024833       0.00082338      -0.00004111       1.21937976      -1.40785422       1.33096020
C        1.63891064       0.00010865      -0.03012400      -0.00029781       0.00024352       0.00001820      -0.82416447       1.23777988       2.18039261
H        1.98177604      -0.49407905       0.90018982      -0.00150856       0.00400384       0.00260653      -0.04845976       0.19707282      -0.38533537
F        0.87493686       2.65386491      -0.00618346      -0.00036934      -0.00051119       0.00019149       0.00392790      -0.06121287      -0.00182002
Cl      -0.68654739      -1.52829536      -0.01804413      -0.00149436       0.00253231      -0.00016929      -0.08198317      -0.01834327       0.00143874
H       -0.21604088       0.63378551      -0.84455928       0.00098313      -0.00352841      -0.00278458      -0.73509724       1.09226667      -1.87239680
H       -0.20985206       0.65367927       0.85052398       0.00049392      -0.00400627       0.00274725      -0.01419262       0.11345759       0.28805924
H        1.88931827       1.08389129      -0.02477642       0.00441636      -0.00257230      -0.00014115       0.01911493      -0.24069964       0.00303038
H        2.04147701      -0.50243369      -0.85314120      -0.00247166       0.00301512      -0.00242734       0.46147467      -0.91246697      -1.54432899
9
Lattice="1.0 0.0 0.0 0.0 1.0 0.0 0.0 0.0 1.0" Properties=species:S:1:pos:R:3:forces:R:3:mp2_forces:R:3 R1=H R2=H R3=CH3 R4=CH3 leaving_group=Cl nucleophile=Cl rxn=sn2 config=rcc label=H_H_CH3_CH3_Cl_Cl_sn2_rcc conformation=0 reactant_id=H_H_CH3_CH3_Cl_none_-_r product_id=H_H_CH3_CH3_none_Cl_sn2_pc mp2_author_energy=-29302.391748605172 mp2_my_energy=0 hash=59123 address=T id=71 energy=-17372.33216497299 free_energy=-17372.33216497299 cell="(1,0,0), (0,1,0), (0,0,1)" mp2_energy=-17372.17515598732 pbc="F F F"
C        0.10025291      -0.02719405       0.04880242      -0.00383810       0.00153641      -0.00068481      -0.10805204       0.80017151      -2.57922824
C        1.58218096       0.15144047       0.03053877       0.00020147      -0.00237977      -0.00061630       0.18862003      -0.68855520      -2.12394319
H        2.01377399      -0.85845145      -0.00260241      -0.00043287       0.00066109       0.00360198       0.01408382       0.27067506       0.12893297
F       -0.54151601       1.22265481      -0.01443191       0.00123778      -0.00105707       0.00337249      -0.11692758       0.59905097       0.33906828
Cl       0.87826232      -3.38468708      -0.02726008      -0.00050197      -0.00038193      -0.00016305      -0.00055538      -0.01075352       0.01014239
H       -0.26198576      -0.54411025      -0.84063089      -0.00113173       0.00148985       0.00279851       0.31714469      -0.27343089       0.05702382
H       -0.28012312      -0.53983402       0.86671753       0.00349898      -0.00246302      -0.00540624      -0.41596072      -0.94554683       1.82320727
H        1.89691449       0.67746992       0.87940980      -0.00213133       0.00382493      -0.00088743       0.65096332       0.80846768       1.44361572
H        1.92852038       0.71666907      -0.88623980       0.00309776      -0.00123049      -0.00201515      -0.52931613      -0.56007877       0.90118099
9
Properties=species:S:1:pos:R:3:forces:R:3:mp2_forces:R:3 R1=H R2=H R3=CH3 R4=CH3 leaving_group=Cl nucleophile=Cl rxn=sn2 config=rcc label=H_H_CH3_CH3_Cl_Cl_sn2_rcc conformation=0 reactant_id=H_H_CH3_CH3_Cl_none_-_r product_id=H_H_CH3_CH3_none_Cl_sn2_pc mp2_author_energy=-29302.391748605172 mp2_my_energy=0 hash=59123 address=T id=71 energy=-17370.62224714096 free_energy=-17370.62224714096 mp2_energy=-17370.512141870724 pbc="F F F"
C        0.13424996       0.10608814       0.04832302       0.00024833       0.00082338      -0.00004111      -0.67292570       0.22692525      -2.46986951
C        1.61999683       0.01066688       0.03321716      -0.00029781       0.00024352       0.00001820       0.18745441      -0.73456646      -1.25000102
H        1.97654553      -0.51788328       0.89729688      -0.00150856       0.00400384       0.00260653       0.42649785      -0.18636588       0.59410916
F        0.89128899       2.61763623      -0.00852125      -0.00036934      -0.00051119       0.00019149      -0.03050363       0.08213441      -0.00593727
Cl      -0.70222542      -1.52287099      -0.02820357      -0.00149436       0.00253231      -0.00016929      -0.02259564      -0.13418615       0.21647726
H       -0.23706440       0.66895108      -0.83835225       0.00098313      -0.00352841      -0.00278458       0.53848411      -0.51741023       0.65268894
H       -0.25454248       0.66565351       0.85057165       0.00049392      -0.00400627       0.00274725      -0.20602035       0.35746128       1.26349607
H        1.87109256       1.06325585      -0.00904762       0.00441636      -0.00257230      -0.00014115       0.25898289       0.67220252       0.31630845
H        2.01693861      -0.49607116      -0.88580547      -0.00247166       0.00301512      -0.00242734      -0.47937393       0.23380525       0.68272793
9
Lattice="1.0 0.0 0.0 0.0 1.0 0.0 0.0 0.0 1.0" Properties=species:S:1:pos:R:3:forces:R:3:mp2_forces:R:3 R1=H R2=H R3=CH3 R4=CH3 leaving_group=Cl nucleophile=Cl rxn=sn2 config=rcc label=H_H_CH3_CH3_Cl_Cl_sn2_rcc conformation=0 reactant_id=H_H_CH3_CH3_Cl_none_-_r product_id=H_H_CH3_CH3_none_Cl_sn2_pc mp2_author_energy=-29302.391748605172 mp2_my_energy=0 hash=59123 address=T id=71 energy=-17372.33216497299 free_energy=-17372.33216497299 cell="(1,0,0), (0,1,0), (0,0,1)" mp2_energy=-17372.249213398332 pbc="F F F"
C        0.08519269      -0.00599657       0.00454342      -0.00383810       0.00153641      -0.00068481      -0.53534011       0.04533373      -0.09485372
C        1.56924096       0.09951266       0.01715418       0.00020147      -0.00237977      -0.00061630       1.26493950       1.30304092      -0.29004871
H        2.05449991      -0.87690058       0.02643135      -0.00043287       0.00066109       0.00360198      -0.40034021      -0.11304986      -0.10692744
F       -0.54351648       1.29913571       0.00170206       0.00123778      -0.00105707       0.00337249       0.64791149      -1.06571365      -0.05226267
Cl       0.87872127      -3.37200175       0.00825825      -0.00050197      -0.00038193      -0.00016305      -0.01051360      -0.02671332       0.00186009
H       -0.24539916      -0.56561552      -0.88088007      -0.00113173       0.00148985       0.00279851      -0.11414007       0.34166891       0.28439018
H       -0.23721502      -0.53651787       0.89342586       0.00349898      -0.00246302      -0.00540624      -0.36361733       0.02910008       0.06705802
H        1.95030336       0.66777798       0.87858732      -0.00213133       0.00382493      -0.00088743      -0.33042478      -0.14944649       0.08128354
H        1.92508466       0.67889201      -0.85613289       0.00309776      -0.00123049      -0.00201515      -0.15847489      -0.36422032       0.10950071
9
Properties=species:S:1:pos:R:3:forces:R:3:mp2_forces:R:3 R1=H R2=H R3=CH3 R4=CH3 leaving_group=Cl nucleophile=Cl rxn=sn2 config=rcc label=H_H_CH3_CH3_Cl_Cl_sn2_rcc conformation=0 reactant_id=H_H_CH3_CH3_Cl_none_-_r product_id=H_H_CH3_CH3_none_Cl_sn2_pc mp2_author_energy=-29302.391748605172 mp2_my_energy=0 hash=59123 address=T id=71 energy=-17370.62224714096 free_energy=-17370.62224714096 mp2_energy=-17370.553632664225 pbc="F F F"
C        0.11918974       0.12728562       0.00406402       0.00024833       0.00082338      -0.00004111       0.20889211      -0.44600270       0.10453202
C        1.60705683      -0.04126093       0.01983257      -0.00029781       0.00024352       0.00001820       1.04139465       1.61487120       0.40998833
H        2.01727145      -0.53633241       0.92633064      -0.00150856       0.00400384       0.00260653      -0.47666279       0.20854450      -0.40996770
F        0.88928852       2.69411713       0.00761272      -0.00036934      -0.00051119       0.00019149       0.04488711      -0.17665748      -0.01096460
Cl      -0.70176647      -1.51018566       0.00731476      -0.00149436       0.00253231      -0.00016929      -0.27114607      -0.18530643       0.03641522
H       -0.22047780       0.64744581      -0.87860143       0.00098313      -0.00352841      -0.00278458       0.06637537       0.15452508      -0.03166278
H       -0.21163438       0.66896966       0.87727998       0.00049392      -0.00400627       0.00274725      -0.07318268       0.10776763       0.01624551
H        1.92448143       1.05356391      -0.00987010       0.00441636      -0.00257230      -0.00014115      -0.41765648      -0.93498986       0.18817854
H        2.01350289      -0.53384822      -0.85569856      -0.00247166       0.00301512      -0.00242734      -0.12290121      -0.34275195      -0.30276454
9
Lattice="1.0 0.0 0.0 0.0 1.0 0.0 0.0 0.0 1.0" Properties=species:S:1:pos:R:3:forces:R:3:mp2_forces:R:3 R1=H R2=H R3=CH3 R4=CH3 leaving_group=Cl nucleophile=Cl rxn=sn2 config=rcc label=H_H_CH3_CH3_Cl_Cl_sn2_rcc conformation=0 reactant_id=H_H_CH3_CH3_Cl_none_-_r product_id=H_H_CH3_CH3_none_Cl_sn2_pc mp2_author_energy=-29302.391748605172 mp2_my_energy=0 hash=59123 address=T id=71 energy=-17372.33216497299 free_energy=-17372.33216497299 cell="(1,0,0), (0,1,0), (0,0,1)" mp2_energy=-17372.244743419353 pbc="F F F"
C        0.12523887      -0.02989540       0.00084340      -0.00383810       0.00153641      -0.00068481      -1.90130456      -0.74592514       0.80659132
C        1.59537313       0.13346981      -0.00106954       0.00020147      -0.00237977      -0.00061630       0.87163753       0.00323500       0.91563152
H        2.03194083      -0.88171321       0.01399869      -0.00043287       0.00066109       0.00360198      -0.12430991       0.44833024      -0.05937673
F       -0.52290864       1.23400152      -0.01376535       0.00123778      -0.00105707       0.00337249       0.20560837       0.05701853       0.14387636
Cl       0.89554489      -3.40198364       0.00118071      -0.00050197      -0.00038193      -0.00016305       0.00876067      -0.01248020       0.00121019
H       -0.27704701      -0.55604646      -0.87529989      -0.00113173       0.00148985       0.00279851       0.44010750      -0.04304719       0.24953458
H       -0.24441033      -0.58326146       0.91934368       0.00349898      -0.00246302      -0.00540624       0.52522975       0.65645708      -1.09735986
H        1.91713826       0.68716470       0.92844140      -0.00213133       0.00382493      -0.00088743      -0.21300936      -0.44228452      -0.99609374
H        1.90768386       0.67340707      -0.89552724       0.00309776      -0.00123049      -0.00201515       0.18728002       0.07869621       0.03598636
9
Properties=species:S:1:pos:R:3:forces:R:3:mp2_forces:R:3 R1=H R2=H R3=CH3 R4=CH3 leaving_group=Cl nucleophile=Cl rxn=sn2 config=rcc label=H_H_CH3_CH3_Cl_Cl_sn2_rcc conformation=0 reactant_id=H_H_CH3_CH3_Cl_none_-_r product_id=H_H_CH3_CH3_none_Cl_sn2_pc mp2_author_energy=-29302.391748605172 mp2_my_energy=0 hash=59123 address=T id=71 energy=-17370.62224714096 free_energy=-17370.62224714096 mp2_energy=-17370.55835620791 pbc="F F F"
C        0.15923592       0.10338679       0.00036400       0.00024833       0.00082338      -0.00004111      -1.78709961       0.78388624       0.09564744
C        1.63318900      -0.00730378       0.00160885      -0.00029781       0.00024352       0.00001820       0.78757918      -0.32998617       0.43621275