14
Properties=species:S:1:pos:R:3:mp2_forces:R:3:forces:R:3 R1=H R2=H R3=CH3 R4=NH2 lg=F nu=F rxn-id=150 mp2_energy=-10143.674123910576 energy=-10143.674123704342 free_energy=-10143.674123704342 pbc="F F F"
C        0.59630137       0.00050636      -0.13869873       0.00059946       0.01121156       0.02380169       0.00056700       0.01120029       0.02380052
C        1.00578043       1.44524445      -0.05245630      -0.00079880      -0.00313025      -0.01815589      -0.00079468      -0.00313482      -0.01811496
H        2.09592900       1.38481772      -0.06724465      -0.00467895       0.01318515      -0.02628533      -0.00467761       0.01319292      -0.02629408
F       -0.82460740      -0.10721828      -0.09671529       0.00683891      -0.01005095       0.00026681       0.00686381      -0.01004162       0.00026687
F        2.84805535       0.01765262       1.44129900      -0.05771078      -0.00109692       0.08158254      -0.05770070      -0.00110178       0.08158783
H        0.90564190      -0.42689856      -1.09524064       0.00421930      -0.00673877      -0.02767624       0.00422475      -0.00673946      -0.02767673
H        1.06181437      -0.51983065       0.69773096       0.01261149       0.01151620      -0.01569873       0.01260091       0.01151811      -0.01570403
C        0.62126933       2.01658582       1.30921078       0.01225570      -0.00953921       0.00187034       0.01226310      -0.00954403       0.00187594
H       -0.45306657       1.90636349       1.49697945       0.02166935      -0.00482734       0.01591912       0.02167673      -0.00482831       0.01591712
H        1.21751707       1.45742247       2.03378519       0.03018066      -0.01596739      -0.02396757       0.03016720      -0.01595394      -0.02397749
H        0.87449616       3.08235388       1.37125409       0.01767746      -0.00153960       0.00214233       0.01767669      -0.00154477       0.00214162
N        0.48547410       2.18058102      -1.21883170      -0.01230486       0.00694278      -0.00602853      -0.01230059       0.00694074      -0.00605749
H        0.76056007       3.15306944      -1.12605173      -0.02174835       0.01268355       0.00407126      -0.02174664       0.01268351       0.00406858
H       -0.52784552       2.16316394      -1.15296048      -0.00881059      -0.00264883      -0.01184180      -0.00881999      -0.00264684      -0.01183370
14
Properties=species:S:1:pos:R:3:mp2_forces:R:3:forces:R:3 R1=H R2=H R3=CH3 R4=NH2 lg=F nu=F rxn-id=150 mp2_energy=-10143.674123910576 energy=-10143.74235027162 free_energy=-10143.674123704342 pbc="F F F"
C        0.62243271       0.00700976      -0.17348974       0.00059946       0.01121156       0.02380169       0.00948114       0.00053754      -0.01206921
C        1.01144127       1.45651776      -0.07398818      -0.00079880      -0.00313025      -0.01815589      -0.00159229       0.00252780      -0.01008054
H        2.10129781       1.43457075      -0.12983405      -0.00467895       0.01318515      -0.02628533      -0.00242957       0.01088167      -0.02359474
F       -0.79835183      -0.11208485      -0.05101051       0.00683891      -0.01005095       0.00026681       0.01468497      -0.01489225       0.03824434
F        2.69838979      -0.01127423       1.66769117      -0.05771078      -0.00109692       0.08158254      -0.04959470      -0.01051136       0.08847861
H        0.87395342      -0.39499833      -1.15838572       0.00421930      -0.00673877      -0.02767624      -0.02367207       0.01065417      -0.02527365
H        1.13675993      -0.51665658       0.63634576       0.01261149       0.01151620      -0.01569873       0.04196191       0.00421703      -0.02805401
C        0.65614514       2.01113909       1.30693432       0.01225570      -0.00953921       0.00187034       0.00769025      -0.00367803      -0.00545596
H       -0.41510141       1.91335804       1.50840470       0.02166935      -0.00482734       0.01591912       0.00857746      -0.00259869      -0.00174547
H        1.25770082       1.42368287       2.00894078       0.03018066      -0.01596739      -0.02396757       0.00975077      -0.01118873      -0.01220002
H        0.92412430       3.07319965       1.38300676       0.01767746      -0.00153960       0.00214233       0.01068519      -0.00487650      -0.00227718
N        0.44979585       2.17686376      -1.22359772      -0.01230486       0.00694278      -0.00602853      -0.01108171       0.00489259      -0.00409778
H        0.71212092       3.15546610      -1.15480378      -0.02174835       0.01268355       0.00407126      -0.00501246       0.00120957      -0.00697091
H       -0.56338906       2.13701992      -1.14415384      -0.00881059      -0.00264883      -0.01184180      -0.00944890       0.01282520       0.00509652
14
Properties=species:S:1:pos:R:3:mp2_forces:R:3:forces:R:3 R1=H R2=H R3=CH3 R4=NH2 lg=F nu=F rxn-id=150 mp2_energy=-10143.674123910576 energy=-10143.727320193513 free_energy=-10143.674123704342 pbc="F F F"
C        0.61847247       0.00926782      -0.16180892       0.00059946       0.01121156       0.02380169       0.00882478      -0.00164561      -0.01573048
C        1.01241648       1.45757708      -0.06571744      -0.00079880      -0.00313025      -0.01815589      -0.00096085       0.00204131      -0.01238026
H        2.10255662       1.42651890      -0.11254154      -0.00467895       0.01318515      -0.02628533      -0.00126735       0.01128539      -0.02345951
F       -0.80641765      -0.10429184      -0.07815522       0.00683891      -0.01005095       0.00026681       0.01098914      -0.00911413       0.04127464
F        2.72166595      -0.03510060       1.59529954      -0.05771078      -0.00109692       0.08158254      -0.04605184       0.00662944       0.10619530
H        0.89718412      -0.40114389      -1.13548464       0.00421930      -0.00673877      -0.02767624      -0.03287868       0.01110299      -0.03429916
H        1.11092377      -0.51486147       0.66113298       0.01261149       0.01151620      -0.01569873       0.04602302       0.00293539      -0.03428261
C        0.65250380       2.02013952       1.31041826       0.01225570      -0.00953921       0.00187034       0.00783526      -0.00810232      -0.00539066
H       -0.41803073       1.91652190       1.51345304       0.02166935      -0.00482734       0.01591912       0.00862502      -0.00386781      -0.00188100
H        1.25605521       1.44225575       2.01703355       0.03018066      -0.01596739      -0.02396757       0.00888415      -0.01824540      -0.01336472
H        0.91314806       3.08456994       1.38104099       0.01767746      -0.00153960       0.00214233       0.01354175      -0.00982049      -0.00128567
N        0.45982341       2.17659514      -1.22103701      -0.01230486       0.00694278      -0.00602853      -0.01085334       0.00323623      -0.00622025
H        0.70033404       3.15993513      -1.13848856      -0.02174835       0.01268355       0.00407126      -0.00070719       0.00056090      -0.00886604
H       -0.55331588       2.11583033      -1.16308508      -0.00881059      -0.00264883      -0.01184180      -0.01200389       0.01300410       0.00969043
14
Properties=species:S:1:pos:R:3:mp2_forces:R:3:forces:R:3 R1=H R2=H R3=CH3 R4=NH2 lg=F nu=F rxn-id=150 mp2_energy=-10143.674123910576 energy=-10143.696190419045 free_energy=-10143.674123704342 pbc="F F F"
C        0.61391625       0.01647281      -0.14474866       0.00059946       0.01121156       0.02380169       0.00176837      -0.00716037      -0.01537899
C        1.01978731       1.46148247      -0.05268016      -0.00079880      -0.00313025      -0.01815589      -0.00284261       0.00337739      -0.01486150
H        2.11032605       1.41714421      -0.09002872      -0.00467895       0.01318515      -0.02628533      -0.00336476       0.00934657      -0.02034769
F       -0.81623875      -0.07878732      -0.13628517       0.00683891      -0.01005095       0.00026681       0.00314061      -0.01255008       0.04662401
F        2.75627221      -0.08035615       1.48370142      -0.05771078      -0.00109692       0.08158254      -0.04212185       0.03025039       0.12239546
H        0.94148094      -0.41394225      -1.09334951       0.00421930      -0.00673877      -0.02767624      -0.04082586       0.01390717      -0.04696579
H        1.05553614      -0.51138156       0.70261172       0.01261149       0.01151620      -0.01569873       0.05555738       0.00147743      -0.03917334
C        0.65264686       2.03602051       1.31546710       0.01225570      -0.00953921       0.00187034       0.00651585      -0.01303529      -0.00503500
H       -0.41836335       1.93073008       1.51554825       0.02166935      -0.00482734       0.01591912       0.00813390      -0.00463394       0.00037159
H        1.25088876       1.46968454       2.03427368       0.03018066      -0.01596739      -0.02396757       0.01056774      -0.02685890      -0.01933022
H        0.90972557       3.10210720       1.37986933       0.01767746      -0.00153960       0.00214233       0.01580907      -0.01573395       0.00011239
N        0.47377345       2.17668824      -1.21467855      -0.01230486       0.00694278      -0.00602853      -0.01003904       0.00208688      -0.00763754
H        0.65264495       3.17071311      -1.10087308      -0.02174835       0.01268355       0.00407126       0.01059971      -0.00135647      -0.01208551
H       -0.53507674       2.05723783      -1.19676770      -0.00881059      -0.00264883      -0.01184180      -0.01289850       0.02088317       0.01131213
14
Properties=species:S:1:pos:R:3:mp2_forces:R:3:forces:R:3 R1=H R2=H R3=CH3 R4=NH2 lg=F nu=F rxn-id=150 mp2_energy=-10143.674123910576 energy=-10143.637536349324 free_energy=-10143.674123704342 pbc="F F F"
C        0.60796032       0.02716118      -0.11591145       0.00059946       0.01121156       0.02380169      -0.01040118      -0.00462866      -0.01448815
C        1.03135670       1.46814858      -0.03069077      -0.00079880      -0.00313025      -0.01815589      -0.00675041      -0.00172831      -0.01511137
H        2.12241311       1.40364163      -0.05395299      -0.00467895       0.01318515      -0.02628533      -0.01079233       0.00212884      -0.01581056
F       -0.82205866      -0.04287024      -0.22061339       0.00683891      -0.01005095       0.00026681      -0.00286790      -0.02282393       0.04851356
F        2.82402234      -0.14022777       1.28628586      -0.05771078      -0.00109692       0.08158254      -0.02817593       0.04500949       0.12404708
H        1.00624064      -0.43773430      -1.01851950       0.00421930      -0.00673877      -0.02767624      -0.03995266       0.01240227      -0.05458780
H        0.96042222      -0.50294905       0.76542120       0.01261149       0.01151620      -0.01569873       0.06159856      -0.00416774      -0.03647255
C        0.64646019       2.05773839       1.32430787       0.01225570      -0.00953921       0.00187034       0.00280958      -0.01341300      -0.00568709
H       -0.42660684       1.95036566       1.51134985       0.02166935      -0.00482734       0.01591912       0.00497916      -0.00165926       0.00738516
H        1.22870807       1.50911546       2.06814672       0.03018066      -0.01596739      -0.02396757       0.01175304      -0.02912951      -0.02224581
H        0.89994503       3.12519168       1.38282057       0.01767746      -0.00153960       0.00214233       0.01593873      -0.01735712      -0.00002621
N        0.49384483       2.17465308      -1.20281170      -0.01230486       0.00694278      -0.00602853      -0.00842556       0.00170681      -0.00889478
H        0.59755465       3.17626677      -1.06082791      -0.02174835       0.01268355       0.00407126       0.02434102       0.00051101      -0.01255396
H       -0.50294294       1.98531266      -1.23294440      -0.00881059      -0.00264883      -0.01184180      -0.01405413       0.03314911       0.00593249
14
Properties=species:S:1:pos:R:3:mp2_forces:R:3:forces:R:3 R1=H R2=H R3=CH3 R4=NH2 lg=F nu=F rxn-id=150 mp2_energy=-10143.674123910576 energy=-10143.61047320805 free_energy=-10143.674123704342 pbc="F F F"
C        0.60797589       0.03317187      -0.10278827       0.00059946       0.01121156       0.02380169      -0.00516806      -0.00147094      -0.01716445
C        1.03836993       1.47330512      -0.02058323      -0.00079880      -0.00313025      -0.01815589      -0.01310149      -0.00976201      -0.01378760
H        2.12937466       1.40602641      -0.04159181      -0.00467895       0.01318515      -0.02628533      -0.01489286      -0.01086341      -0.01103827
F       -0.81865583      -0.02639327      -0.25577389       0.00683891      -0.01005095       0.00026681      -0.01008778      -0.02585565       0.04627478
F        2.84734996      -0.17903759       1.19471888      -0.05771078      -0.00109692       0.08158254      -0.01257958       0.04832527       0.12093832
H        1.03489986      -0.44808847      -0.98335424       0.00421930      -0.00673877      -0.02767624      -0.03843328       0.01292998      -0.05114774
H        0.91812739      -0.49636737       0.79239229       0.01261149       0.01151620      -0.01569873       0.06187371      -0.00801552      -0.03389745
C        0.64319688       2.06837910       1.32871674       0.01225570      -0.00953921       0.00187034       0.00148609      -0.01244723      -0.00596542
H       -0.43036411       1.95625520       1.50839206       0.02166935      -0.00482734       0.01591912       0.00146332       0.00220909       0.00967810
H        1.21758694       1.52945304       2.08573602       0.03018066      -0.01596739      -0.02396757       0.00989860      -0.02861285      -0.02200581
H        0.89165060       3.13688001       1.38475365       0.01767746      -0.00153960       0.00214233       0.01678958      -0.01586652      -0.00110437
N        0.50146979       2.17213862      -1.19719381      -0.01230486       0.00694278      -0.00602853      -0.00733458       0.00395294      -0.00915349
H        0.57437410       3.17527819      -1.04774395      -0.02174835       0.01268355       0.00407126       0.02631883       0.00548378      -0.01336502
H       -0.48803639       1.95281285      -1.24362048      -0.00881059      -0.00264883      -0.01184180      -0.01623249       0.03999307       0.00173843
14
Properties=species:S:1:pos:R:3:mp2_forces:R:3:forces:R:3 R1=H R2=H R3=CH3 R4=NH2 lg=F nu=F rxn-id=150 mp2_energy=-10143.674123910576 energy=-10143.56996204312 free_energy=-10143.674123704342 pbc="F F F"
C        0.61088412       0.04350871      -0.08465792       0.00059946       0.01121156       0.02380169      -0.00903817      -0.00636310      -0.01490086
C        1.05155690       1.48199712      -0.00644289      -0.00079880      -0.00313025      -0.01815589      -0.02199927      -0.00865146      -0.01198420
H        2.14256322       1.41958341      -0.02852454      -0.00467895       0.01318515      -0.02628533      -0.02207620      -0.04339698      -0.00223576
F       -0.80842216       0.00117342      -0.30874105       0.00683891      -0.01005095       0.00026681      -0.01775641      -0.02832763       0.03982358
F        2.86949048      -0.24143127       1.06198133      -0.05771078      -0.00109692       0.08158254       0.02187676       0.05099775       0.11922996
H        1.07610354      -0.46650732      -0.92832051       0.00421930      -0.00673877      -0.02767624      -0.03376618       0.01828774      -0.04727098
H        0.85145090      -0.48267098       0.83197144       0.01261149       0.01151620      -0.01569873       0.06460898      -0.01068772      -0.03453698
C        0.64062770       2.08351577       1.33544338       0.01225570      -0.00953921       0.00187034      -0.00224447      -0.01109156      -0.00494739
H       -0.43300790       1.95967582       1.50379140       0.02166935      -0.00482734       0.01591912      -0.00387191       0.01120205       0.01370851
H        1.20513089       1.55957581       2.11097997       0.03018066      -0.01596739      -0.02396757       0.00601115      -0.02751899      -0.02315141
H        0.87746055       3.15421743       1.38808198       0.01767746      -0.00153960       0.00214233       0.01910415      -0.01432672      -0.00424544
N        0.51210422       2.16874766      -1.18880936      -0.01230486       0.00694278      -0.00602853      -0.00814622       0.00817295      -0.00915272
H        0.53496656       3.17226258      -1.02770304      -0.02174835       0.01268355       0.00407126       0.02781821       0.01216269      -0.01456836
H       -0.46358938       1.90016558      -1.25699025      -0.00881059      -0.00264883      -0.01184180      -0.02052040       0.04954097      -0.00576795
14
Properties=species:S:1:pos:R:3:mp2_forces:R:3:forces:R:3 R1=H R2=H R3=CH3 R4=NH2 lg=F nu=F rxn-id=150 mp2_energy=-10143.674123910576 energy=-10143.502391667025 free_energy=-10143.674123704342 pbc="F F F"
C        0.62602306       0.05462618      -0.05923963       0.00059946       0.01121156       0.02380169      -0.09282731       0.00619742      -0.03458690
C        1.08065680       1.49525911       0.01139017      -0.00079880      -0.00313025      -0.01815589      -0.05500470      -0.01320062      -0.01267906
H        2.17277256       1.47581147      -0.02294522      -0.00467895       0.01318515      -0.02628533      -0.05119206      -0.13416971       0.00888928
F       -0.78387147       0.04463789      -0.36920968       0.00683891      -0.01005095       0.00026681      -0.02137193      -0.04485169       0.01202026
F        2.85002231      -0.31456282       0.88216451      -0.05771078      -0.00109692       0.08158254       0.16018104       0.01733722       0.14781768
H        1.12668757      -0.49751299      -0.85307723       0.00421930      -0.00673877      -0.02767624      -0.01904190       0.03486247      -0.01335466
H        0.75118820      -0.46609616       0.88399270       0.01261149       0.01151620      -0.01569873       0.10408786       0.00888619      -0.04034224
C        0.64243984       2.09847538       1.34375111       0.01225570      -0.00953921       0.00187034      -0.01383311      -0.00409698      -0.00538509
H       -0.43018335       1.94762638       1.48780776       0.02166935      -0.00482734       0.01591912      -0.01608826       0.03506763       0.03660393
H        1.19361861       1.59520981       2.14341807       0.03018066      -0.01596739      -0.02396757       0.00398204      -0.02715756      -0.03194212
H        0.85424949       3.17354804       1.39453341       0.01767746      -0.00153960       0.00214233       0.02131186      -0.00979263      -0.00600768
N        0.52625360       2.16032162      -1.17724024      -0.01230486       0.00694278      -0.00602853      -0.01344132       0.02255971      -0.01361258
H        0.48508340       3.16016353      -1.00664863      -0.02174835       0.01268355       0.00407126       0.03033212       0.02606664      -0.01093952
H       -0.42762095       1.82630629      -1.25663716      -0.00881059      -0.00264883      -0.01184180      -0.03709434       0.08229192      -0.03648129
14
Properties=species:S:1:pos:R:3:mp2_forces:R:3:forces:R:3 R1=H R2=H R3=CH3 R4=NH2 lg=F nu=F rxn-id=150 mp2_energy=-10143.674123910576 energy=-10143.24667801145 free_energy=-10143.674123704342 pbc="F F F"
C        0.71443446       0.04748735      -0.02091140       0.00059946       0.01121156       0.02380169      -1.51001404       0.14581915      -0.42340370
C        1.13756128       1.51137128       0.02598672      -0.00079880      -0.00313025      -0.01815589      -0.11239242      -0.04930745      -0.00305751
H        2.22481720       1.60864999      -0.03159454      -0.00467895       0.01318515      -0.02628533      -0.07195189      -0.19729928       0.00929916
F       -0.75863892       0.09083879      -0.37940837       0.00683891      -0.01005095       0.00026681       0.93248343      -0.22715051       0.21672572
F        2.69156255      -0.33249252       0.72302138      -0.05771078      -0.00109692       0.08158254       0.64616993      -0.11625480       0.29280813
H        1.15084511      -0.52959768      -0.83393618       0.00421930      -0.00673877      -0.02767624      -0.05600806       0.07013625       0.10399044
H        0.64056320      -0.47685328       0.92703406       0.01261149       0.01151620      -0.01569873       0.18327905       0.04193045      -0.07514301
C        0.65518281       2.10286877       1.34930721       0.01225570      -0.00953921       0.00187034      -0.01236004       0.01193449      -0.00691745
H       -0.41538549       1.91347789       1.44846740       0.02166935      -0.00482734       0.01591912      -0.01405318       0.06453690       0.07668137
H        1.18693486       1.62001830       2.17424367       0.03018066      -0.01596739      -0.02396757       0.00502088      -0.02878006      -0.04379004
H        0.83378011       3.18290911       1.40120895       0.01767746      -0.00153960       0.00214233       0.01234490       0.00035878       0.00557220
N        0.54142174       2.13825778      -1.16371472      -0.01230486       0.00694278      -0.00602853       0.00340173       0.04299805      -0.02578170
H        0.45145670       3.13504485      -0.99755019      -0.02174835       0.01268355       0.00407126       0.01857662       0.02263625      -0.00229697
H       -0.38721597       1.74183308      -1.22009402      -0.00881059      -0.00264883      -0.01184180      -0.02449692       0.21844178      -0.12468662
14
Properties=species:S:1:pos:R:3:mp2_forces:R:3:forces:R:3 R1=H R2=H R3=CH3 R4=NH2 lg=F nu=F rxn-id=150 mp2_energy=-10143.674123910576 energy=-10142.893683293021 free_energy=-10143.674123704342 pbc="F F F"
C        0.83987304       0.03544460       0.01445062       0.00059946       0.01121156       0.02380169      -0.57787382       0.06598421      -0.17482444
C        1.14673736       1.51550170       0.02621384      -0.00079880      -0.00313025      -0.01815589      -0.02414944      -0.01551651       0.00065951
H        2.23068409       1.62492719      -0.03234470      -0.00467895       0.01318515      -0.02628533      -0.01916413      -0.07444502       0.00586920
F       -0.83652214       0.10991145      -0.39757986       0.00683891      -0.01005095       0.00026681       0.24688946      -0.05706860       0.05640971
F        2.63803156      -0.32287401       0.69836960      -0.05771078      -0.00109692       0.08158254       0.21935558      -0.03043066       0.09709822
H        1.15567533      -0.53533023      -0.84216154       0.00421930      -0.00673877      -0.02767624       0.03839573       0.00855392       0.03796302
H        0.62555790      -0.48017571       0.93320627       0.01261149       0.01151620      -0.01569873       0.10846826       0.00586530       0.00631111
C        0.65623840       2.10188635       1.34993369       0.01225570      -0.00953921       0.00187034      -0.00254063       0.00424011       0.00065219
H       -0.41428255       1.90822192       1.44188344       0.02166935      -0.00482734       0.01591912      -0.00421924       0.01988281       0.02115447
H        1.18641239       1.62220534       2.17778611       0.03018066      -0.01596739      -0.02396757       0.00226154      -0.01097580      -0.01417884
H        0.83288106       3.18286723       1.40088250       0.01767746      -0.00153960       0.00214233       0.00704597       0.00001697       0.00366451
N        0.54120910       2.13466316      -1.16146733      -0.01230486       0.00694278      -0.00602853       0.00352578       0.01621052      -0.00198320
H        0.44978778       3.13316086      -0.99738792      -0.02174835       0.01268355       0.00407126       0.00422514       0.00989513      -0.00040616
H       -0.38496365       1.72340387      -1.20972477      -0.00881059      -0.00264883      -0.01184180      -0.00222019       0.05778761      -0.03838929
14
Properties=species:S:1:pos:R:3:mp2_forces:R:3:forces:R:3 R1=H R2=H R3=CH3 R4=NH2 lg=F nu=F rxn-id=150 mp2_energy=-10143.674123910576 energy=-10142.933496412636 free_energy=-10143.674123704342 pbc="F F F"
C        0.97054383       0.01846918       0.05720587       0.00059946       0.01121156       0.02380169       1.03781670      -0.13415545       0.34034722
C        1.14800825       1.51853945       0.02569958      -0.00079880      -0.00313025      -0.01815589       0.00943070       0.02399854      -0.00409454
H        2.23297371       1.64110692      -0.03400708      -0.00467895       0.01318515      -0.02628533       0.01736516       0.12758349      -0.01234710
F       -0.86982903       0.11643325      -0.40503325       0.00683891      -0.01005095       0.00026681      -0.26888089       0.05171359      -0.05999108
F        2.59558627      -0.31963642       0.67821914      -0.05771078      -0.00109692       0.08158254      -0.33454251       0.02611334      -0.16439443
H        1.13438639      -0.53345920      -0.84927173       0.00421930      -0.00673877      -0.02767624      -0.16935434       0.01525309      -0.05392517
H        0.59319042      -0.47834568       0.92450828       0.01261149       0.01151620      -0.01569873      -0.25506665       0.01668423      -0.06795382
C        0.65601550       2.10106577       1.34922894       0.01225570      -0.00953921       0.00187034      -0.00164244      -0.00529905      -0.00533311
H       -0.41380471       1.90545075       1.43856396       0.02166935      -0.00482734       0.01591912       0.00228804      -0.02056039      -0.02697463
H        1.18534255       1.62408185       2.18017338       0.03018066      -0.01596739      -0.02396757      -0.01032428       0.01301743       0.01857480
H        0.83121776       3.18292955       1.40056189       0.01767746      -0.00153960       0.00214233      -0.01162800      -0.00021700      -0.00186913
N        0.54027069       2.13117700      -1.16278778      -0.01230486       0.00694278      -0.00602853      -0.00649816      -0.02805340      -0.00984144
H        0.44868770       3.13066772      -0.99736995      -0.02174835       0.01268355       0.00407126      -0.00986722      -0.01992482       0.00143390
H       -0.38526969       1.71533358      -1.20363128      -0.00881059      -0.00264883      -0.01184180       0.00090391      -0.06615359       0.04636852
14
Properties=species:S:1:pos:R:3:mp2_forces:R:3:forces:R:3 R1=H R2=H R3=CH3 R4=NH2 lg=F nu=F rxn-id=150 mp2_energy=-10143.674123910576 energy=-10143.531963808127 free_energy=-10143.674123704342 pbc="F F F"
C        1.11669650      -0.00753657       0.10818359       0.00059946       0.01121156       0.02380169       1.95020919      -0.37434197       0.63925909
C        1.15766624       1.51727614       0.02879797      -0.00079880      -0.00313025      -0.01815589       0.12842884      -0.00684542       0.05261535
H        2.24008798       1.66593368      -0.03715019      -0.00467895       0.01318515      -0.02628533       0.09721754       0.32634660      -0.04091776
F       -0.92972776       0.12867056      -0.42001560       0.00683891      -0.01005095       0.00026681      -0.79298351       0.15817250      -0.19433370
F        2.52227481      -0.31027319       0.64395849      -0.05771078      -0.00109692       0.08158254      -0.98287989       0.13333784      -0.45839771
H        1.12477065      -0.52600440      -0.84433227       0.00421930      -0.00673877      -0.02767624      -0.12853076       0.10952328       0.07411415
H        0.57257420      -0.47217834       0.90968895       0.01261149       0.01151620      -0.01569873      -0.27876141       0.08899976      -0.17839660
C        0.65793113       2.09901793       1.34802162       0.01225570      -0.00953921       0.00187034       0.02385375      -0.01813224      -0.01226965
H       -0.41199078       1.90011563       1.43276613       0.02166935      -0.00482734       0.01591912       0.02264382      -0.07044095      -0.07553409
H        1.18350001       1.62699689       2.18426104       0.03018066      -0.01596739      -0.02396757      -0.02648964       0.03585384       0.05355764
H        0.82913767       3.18291467       1.40030564       0.01767746      -0.00153960       0.00214233      -0.02541437      -0.00448962      -0.00577861
N        0.54156590       2.12350085      -1.16312240      -0.01230486       0.00694278      -0.00602853       0.01695661      -0.10125417      -0.00876528
H        0.44714308       3.12503611      -0.99656417      -0.02174835       0.01268355       0.00407126      -0.02022381      -0.07512052       0.01501239
H       -0.38430997       1.70034378      -1.19273884      -0.00881059      -0.00264883      -0.01184180       0.01597363      -0.20160892       0.13983477
14
Properties=species:S:1:pos:R:3:mp2_forces:R:3:forces:R:3 R1=H R2=H R3=CH3 R4=NH2 lg=F nu=F rxn-id=150 mp2_energy=-10143.674123910576 energy=-10143.817102826511 free_energy=-10143.674123704342 pbc="F F F"
C        1.21082412      -0.01485688       0.13248444       0.00059946       0.01121156       0.02380169       0.43594193      -0.02972593       0.14538268
C        1.19158747       1.51925313       0.03692769      -0.00079880      -0.00313025      -0.01815589       0.13601125       0.00972092       0.02463992
H        2.26318724       1.72286353      -0.03900654      -0.00467895       0.01318515      -0.02628533       0.09818617       0.24445778      -0.00753258
F       -1.05002622       0.16579765      -0.44329130       0.00683891      -0.01005095       0.00026681      -0.52152312       0.16273020      -0.11074740
F        2.52911700      -0.32958556       0.63703094      -0.05771078      -0.00109692       0.08158254       0.00568777      -0.08210537      -0.04366672
H        1.11514539      -0.49937647      -0.83408436       0.00421930      -0.00673877      -0.02767624      -0.04603784       0.10544546       0.03767725
H        0.53786913      -0.44571282       0.86802026       0.01261149       0.01151620      -0.01569873      -0.13972912       0.11699146      -0.18628366