13
Properties=species:S:1:pos:R:3:mp2_forces:R:3:forces:R:3 R1=CN R2=H R3=H R4=CH3 lg=Cl nu=Br rxn-id=1217 mp2_energy=-88244.40344011296 energy=-88244.40344022897 free_energy=-88244.40344022897 pbc="F F F"
C        0.56660585      -0.02005565      -0.02600295       0.08001602       0.00790617       0.02152849       0.08004519       0.00787869       0.02155129
C        0.82839294       1.48460508      -0.11841097       0.02182266       0.01000990      -0.01290172       0.02181848       0.00993852      -0.01286105
H        1.91139873       1.59891268      -0.03331490      -0.00740150      -0.03871315      -0.01934256      -0.00740620      -0.03870834      -0.01933889
Cl      -1.07856475      -0.33674438       0.68384533      -0.04988319       0.00787559      -0.02442640      -0.04986550       0.00788831      -0.02444266
Br       3.94175401      -0.11801100      -0.49888694      -0.01661011       0.00605030       0.07965451      -0.01660402       0.00605035       0.07965236
H        1.28573930      -0.48567598       0.64676369       0.03488634      -0.00621489      -0.05474626       0.03484084      -0.00618258      -0.05477663
H        0.35685354       1.95186576       0.75161101       0.03678654      -0.00213726      -0.00561877       0.03678128      -0.00212741      -0.00562484
C        0.60681303      -0.70324389      -1.31642578      -0.00822148      -0.02301856      -0.01159537      -0.00821420      -0.02303300      -0.01166019
N        0.51201748      -1.23763610      -2.35814606       0.00429076       0.01583345       0.01944162       0.00428563       0.01586292       0.01952546
C        0.34369475       2.11412705      -1.41670688      -0.03951733       0.00014860      -0.04492261      -0.03951125       0.00015114      -0.04493405
H        0.99306155       1.80222701      -2.23862014      -0.06517703       0.01062397       0.02008858      -0.06516977       0.01061764       0.02007920
H       -0.68272688       1.82286735      -1.66131401       0.00575830       0.03902352       0.04109792       0.00574697       0.03902604       0.04109068
H        0.38290437       3.20530738      -1.34879436       0.00325004      -0.02738763      -0.00825744       0.00325254      -0.02736228      -0.00826067
13
Properties=species:S:1:pos:R:3:mp2_forces:R:3:forces:R:3 R1=CN R2=H R3=H R4=CH3 lg=Cl nu=Br rxn-id=1217 mp2_energy=-88244.40344011296 energy=-88244.39910295437 free_energy=-88244.40344022897 pbc="F F F"
C        0.57221488      -0.02848890      -0.03577275       0.08001602       0.00790617       0.02152849       0.00074775      -0.00338612      -0.00532532
C        0.81863480       1.48036420      -0.12062700       0.02182266       0.01000990      -0.01290172       0.01116753      -0.00641214      -0.00970772
H        1.89799017       1.60580622      -0.01000734      -0.00740150      -0.03871315      -0.01934256       0.01445687      -0.01641784      -0.02828650
Cl      -1.02481159      -0.37377387       0.76515517      -0.04988319       0.00787559      -0.02442640      -0.00676243       0.01418395      -0.01083111
Br       3.94746501      -0.05725725      -0.41435898      -0.01661011       0.00605030       0.07965451       0.02183594       0.01414520       0.05650711
H        1.33864062      -0.50006511       0.57800172       0.03488634      -0.00621489      -0.05474626      -0.00584536      -0.00701247       0.00051799
H        0.32344571       1.94286534       0.73836598       0.03678654      -0.00213726      -0.00561877       0.03041957      -0.00334478       0.00035110
C        0.53769234      -0.69282218      -1.33483965      -0.00822148      -0.02301856      -0.01159537       0.00000050      -0.00183170      -0.00541488
N        0.41253352      -1.21856496      -2.37736491       0.00429076       0.01583345       0.01944162       0.00009961       0.00348347      -0.00928343
C        0.36354023       2.10859408      -1.42927238      -0.03951733       0.00014860      -0.04492261      -0.01171449       0.00002338       0.00070792
H        1.02946815       1.79109399      -2.23603085      -0.06517703       0.01062397       0.02008858      -0.03492277      -0.00320516      -0.01755609
H       -0.65816080       1.82281722      -1.69460576       0.00575830       0.03902352       0.04109792      -0.02105569       0.01062588       0.02421321
H        0.40929089       3.19797654      -1.36304620       0.00325004      -0.02738763      -0.00825744       0.00157296      -0.00085166       0.00410770
13
Properties=species:S:1:pos:R:3:mp2_forces:R:3:forces:R:3 R1=CN R2=H R3=H R4=CH3 lg=Cl nu=Br rxn-id=1217 mp2_energy=-88244.40344011296 energy=-88244.38851223506 free_energy=-88244.40344022897 pbc="F F F"
C        0.57469975      -0.02915252      -0.03120555       0.08001602       0.00790617       0.02152849       0.00140565      -0.00448344      -0.00480364
C        0.80265744       1.48479487      -0.11127234       0.02182266       0.01000990      -0.01290172       0.01135231      -0.00711912      -0.00864297
H        1.87578254       1.62757753       0.03180816      -0.00740150      -0.03871315      -0.01934256       0.01532766      -0.01606961      -0.02601156
Cl      -1.00065881      -0.40003998       0.80113890      -0.04988319       0.00787559      -0.02442640      -0.00577855       0.01318990      -0.00859439
Br       3.93325355      -0.05749519      -0.45452034      -0.01661011       0.00605030       0.07965451       0.00889027       0.02178332       0.05308679
H        1.35980815      -0.49676364       0.56173373       0.03488634      -0.00621489      -0.05474626      -0.00374797      -0.00788515      -0.00015634
H        0.27383795       1.94346830       0.72930501       0.03678654      -0.00213726      -0.00561877       0.02886461      -0.00357525      -0.00003796
C        0.51964373      -0.68801152      -1.33231645      -0.00822148      -0.02301856      -0.01159537      -0.00088566      -0.00102309      -0.00475738
N        0.38013419      -1.21210826      -2.37378513       0.00429076       0.01583345       0.01944162      -0.00122457       0.00412764      -0.01003951
C        0.38274416       2.10642211      -1.43517747      -0.03951733       0.00014860      -0.04492261      -0.00871273      -0.00138399       0.00034311
H        1.07624519       1.79044209      -2.21907100      -0.06517703       0.01062397       0.02008858      -0.03058244      -0.00553866      -0.01740927
H       -0.62847605       1.81322934      -1.73082274       0.00575830       0.03902352       0.04109792      -0.01947078       0.00997932       0.02267881
H        0.41827215       3.19618217      -1.37021775       0.00325004      -0.02738763      -0.00825744       0.00456218      -0.00200186       0.00434430
13
Properties=species:S:1:pos:R:3:mp2_forces:R:3:forces:R:3 R1=CN R2=H R3=H R4=CH3 lg=Cl nu=Br rxn-id=1217 mp2_energy=-88244.40344011296 energy=-88244.3786362912 free_energy=-88244.40344022897 pbc="F F F"
C        0.57832230      -0.02998243      -0.02674673       0.08001602       0.00790617       0.02152849       0.00237395      -0.00534385      -0.00498728
C        0.78751741       1.48877325      -0.10238305       0.02182266       0.01000990      -0.01290172       0.01033893      -0.00745318      -0.00804199
H        1.85245520       1.64970989       0.07461377      -0.00740150      -0.03871315      -0.01934256       0.01506909      -0.01501041      -0.02458108
Cl      -0.97775536      -0.42311372       0.83268408      -0.04988319       0.00787559      -0.02442640      -0.00354826       0.01027985      -0.00559324
Br       3.91459067      -0.05681166      -0.50009578      -0.01661011       0.00605030       0.07965451       0.01273531       0.02171246       0.05799581
H        1.37916702      -0.49331922       0.54792777       0.03488634      -0.00621489      -0.05474626       0.00010034      -0.00743973      -0.00311066
H        0.22389693       1.94276067       0.71837113       0.03678654      -0.00213726      -0.00561877       0.02563597      -0.00264750      -0.00123867
C        0.50496370      -0.68540557      -1.32880166      -0.00822148      -0.02301856      -0.01159537      -0.00351716       0.00054018      -0.00487609
N        0.34996314      -1.21003030      -2.36786697       0.00429076       0.01583345       0.01944162      -0.00713766       0.00529535      -0.01154945
C        0.40238856       2.10497415      -1.44013559      -0.03951733       0.00014860      -0.04492261      -0.00818708      -0.00172798      -0.00038150
H        1.12153430       1.79161373      -2.20183704      -0.06517703       0.01062397       0.02008858      -0.02984163      -0.00663808      -0.01835273
H       -0.59744042       1.80451436      -1.76455783       0.00575830       0.03902352       0.04109792      -0.01992316       0.01068208       0.02073095
H        0.42834048       3.19486217      -1.37557506       0.00325004      -0.02738763      -0.00825744       0.00590135      -0.00224921       0.00398593
13
Properties=species:S:1:pos:R:3:mp2_forces:R:3:forces:R:3 R1=CN R2=H R3=H R4=CH3 lg=Cl nu=Br rxn-id=1217 mp2_energy=-88244.40344011296 energy=-88244.36783576688 free_energy=-88244.40344022897 pbc="F F F"
C        0.58440817      -0.02988853      -0.02109073       0.08001602       0.00790617       0.02152849      -0.00060102      -0.00487832      -0.00478516
C        0.77694271       1.49266944      -0.09358713       0.02182266       0.01000990      -0.01290172       0.00669542      -0.00687541      -0.00706188
H        1.83277162       1.67116129       0.11443274      -0.00740150      -0.03871315      -0.01934256       0.01281894      -0.01481458      -0.02572671
Cl      -0.96442409      -0.43604009       0.84700158      -0.04988319       0.00787559      -0.02442640      -0.00242975       0.00461731      -0.00016204
Br       3.87326666      -0.05941298      -0.56135325      -0.01661011       0.00605030       0.07965451       0.03301364       0.01715884       0.06147903
H        1.39253022      -0.48890053       0.54613557       0.03488634      -0.00621489      -0.05474626      -0.00068111      -0.00563835      -0.00538496
H        0.18135622       1.94161085       0.70780391       0.03678654      -0.00213726      -0.00561877       0.02342288      -0.00104839       0.00027886
C        0.50553217      -0.68592194      -1.32272253      -0.00822148      -0.02301856      -0.01159537      -0.00836901       0.00284262      -0.00483973
N        0.33689380      -1.21502811      -2.35747321       0.00429076       0.01583345       0.01944162      -0.01016509       0.00849993      -0.01385409
C        0.42070588       2.10388033      -1.44202236      -0.03951733       0.00014860      -0.04492261      -0.00967501      -0.00140086      -0.00096514
H        1.16090131       1.79574891      -2.18548371      -0.06517703       0.01062397       0.02008858      -0.02997850      -0.00867727      -0.01702467
H       -0.56838085       1.79481393      -1.78946793       0.00575830       0.03902352       0.04109792      -0.02082648       0.01215557       0.01699343
H        0.43544008       3.19385273      -1.37657590       0.00325004      -0.02738763      -0.00825744       0.00677510      -0.00194108       0.00105306
13
Properties=species:S:1:pos:R:3:mp2_forces:R:3:forces:R:3 R1=CN R2=H R3=H R4=CH3 lg=Cl nu=Br rxn-id=1217 mp2_energy=-88244.40344011296 energy=-88244.3594726487 free_energy=-88244.40344022897 pbc="F F F"
C        0.59302422      -0.02713677      -0.01619450       0.08001602       0.00790617       0.02152849      -0.01182173      -0.00223965      -0.00366117
C        0.77962656       1.49615090      -0.09041722       0.02182266       0.01000990      -0.01290172       0.00032581      -0.00477191      -0.00322913
H        1.83187107       1.68448547       0.12560408      -0.00740150      -0.03871315      -0.01934256       0.01030925      -0.02069910      -0.03060303
Cl      -0.97323815      -0.42816335       0.82355927      -0.04988319       0.00787559      -0.02442640      -0.00444535       0.00023812       0.00755792
Br       3.81940696      -0.08536858      -0.61079334      -0.01661011       0.00605030       0.07965451       0.05600700       0.02068394       0.05006752
H        1.39154726      -0.48230298       0.56700577       0.03488634      -0.00621489      -0.05474626      -0.01248937      -0.00512906      -0.00454390
H        0.17385194       1.94173592       0.70457310       0.03678654      -0.00213726      -0.00561877       0.02636931       0.00287737       0.01213914
C        0.53507157      -0.69040217      -1.31541685      -0.00822148      -0.02301856      -0.01159537      -0.01789418       0.00692526      -0.00482271
N        0.36104475      -1.22791129      -2.34492503       0.00429076       0.01583345       0.01944162       0.00101821       0.01397728      -0.01842545
C        0.42386460       2.10562854      -1.43900698      -0.03951733       0.00014860      -0.04492261      -0.01154023      -0.00264883       0.00003910
H        1.16860038       1.80907895      -2.18236175      -0.06517703       0.01062397       0.02008858      -0.02532529      -0.01802661      -0.00793418
H       -0.56164163       1.78714557      -1.78833472       0.00575830       0.03902352       0.04109792      -0.02017175       0.01129965       0.01104718
H        0.42491439       3.19560510      -1.36769478       0.00325004      -0.02738763      -0.00825744       0.00965831      -0.00248646      -0.00763129
13
Properties=species:S:1:pos:R:3:mp2_forces:R:3:forces:R:3 R1=CN R2=H R3=H R4=CH3 lg=Cl nu=Br rxn-id=1217 mp2_energy=-88244.40344011296 energy=-88244.34516084316 free_energy=-88244.40344022897 pbc="F F F"
C        0.60349786      -0.02887036      -0.01090070       0.08001602       0.00790617       0.02152849      -0.03392210       0.00359530       0.00512879
C        0.77372101       1.49912195      -0.08887351       0.02182266       0.01000990      -0.01290172      -0.01724433      -0.00111661       0.00708231
H        1.81376102       1.71657231       0.16034316      -0.00740150      -0.03871315      -0.01934256       0.00380247      -0.05581114      -0.03531807
Cl      -0.96137596      -0.44082637       0.84071119      -0.04988319       0.00787559      -0.02442640       0.03110909       0.00574411      -0.01315085
Br       3.77292003      -0.11082171      -0.66316486      -0.01661011       0.00605030       0.07965451       0.07680208       0.02933407       0.03870788
H        1.40631605      -0.47607902       0.57218872       0.03488634      -0.00621489      -0.05474626      -0.01488481       0.00035280      -0.01837636
H        0.13453032       1.92957086       0.68512060       0.03678654      -0.00213726      -0.00561877       0.02201275       0.03257038       0.03029992
C        0.54543249      -0.69586253      -1.30826393      -0.00822148      -0.02301856      -0.01159537      -0.04342816       0.01052272       0.00366915
N        0.34778201      -1.23900278      -2.33075222       0.00429076       0.01583345       0.01944162       0.01558977       0.02250552      -0.01953289
C        0.44077443       2.11041789      -1.44304806      -0.03951733       0.00014860      -0.04492261      -0.01582033      -0.00911588       0.00326759
H        1.20477618       1.83658740      -2.17507705      -0.06517703       0.01062397       0.02008858      -0.01695644      -0.03896511       0.01003147
H       -0.53197909       1.77765135      -1.81271775       0.00575830       0.03902352       0.04109792      -0.02155040       0.00994462       0.00146138
H        0.41778757       3.20008633      -1.35996855       0.00325004      -0.02738763      -0.00825744       0.01449042      -0.00956078      -0.01327035
13
Properties=species:S:1:pos:R:3:mp2_forces:R:3:forces:R:3 R1=CN R2=H R3=H R4=CH3 lg=Cl nu=Br rxn-id=1217 mp2_energy=-88244.40344011296 energy=-88244.2003772334 free_energy=-88244.40344022897 pbc="F F F"
C        0.65377269      -0.03719150      -0.02638859       0.08001602       0.00790617       0.02152849      -0.70688861      -0.16301219       0.36999128
C        0.82246061       1.50170456      -0.10788988       0.02182266       0.01000990      -0.01290172      -0.19901147      -0.06174706       0.07805610
H        1.82296352       1.83157459       0.19926089      -0.00740150      -0.03871315      -0.01934256      -0.02871408      -0.29606496      -0.06193518
Cl      -1.02778393      -0.44936312       0.88267121      -0.04988319       0.00787559      -0.02442640       0.71035628       0.18927001      -0.45606940
Br       3.66271053      -0.12014294      -0.69680355      -0.01661011       0.00605030       0.07965451       0.24466370      -0.00036205      -0.01418519
H        1.39711738      -0.49906287       0.61706082       0.03488634      -0.00621489      -0.05474626       0.06586071       0.08976595      -0.15627254
H        0.11869192       1.83323214       0.65101506       0.03678654      -0.00213726      -0.00561877       0.00750769       0.29298552       0.06637270
C        0.61221698      -0.71238540      -1.31942057      -0.00822148      -0.02301856      -0.01159537      -0.13276405       0.02449628       0.10382014
N        0.31825415      -1.25998307      -2.31992624       0.00429076       0.01583345       0.01944162       0.10101321       0.06410386       0.01995721
C        0.46540342       2.12527491      -1.45163053      -0.03951733       0.00014860      -0.04492261      -0.03809111      -0.05034594       0.02094658
H        1.21558871       1.88424570      -2.20928530      -0.06517703       0.01062397       0.02008858      -0.00054007      -0.06776028       0.05794067
H       -0.50564139       1.76566910      -1.79306242       0.00575830       0.03902352       0.04109792      -0.03652969       0.01946302      -0.04750302
H        0.41218933       3.21497321      -1.36000385       0.00325004      -0.02738763      -0.00825744       0.01313750      -0.04079218       0.01888066
13
Properties=species:S:1:pos:R:3:mp2_forces:R:3:forces:R:3 R1=CN R2=H R3=H R4=CH3 lg=Cl nu=Br rxn-id=1217 mp2_energy=-88244.40344011296 energy=-88243.87721141729 free_energy=-88244.40344022897 pbc="F F F"
C        0.75055920      -0.01519505      -0.07605466       0.08001602       0.00790617       0.02152849      -1.34928854      -0.26886529       0.63755851
C        0.84866291       1.51012700      -0.11814950       0.02182266       0.01000990      -0.01290172      -0.13723428      -0.07234424       0.03942032
H        1.82536226       1.87275973       0.20935952      -0.00740150      -0.03871315      -0.01934256       0.00651109      -0.24132275      -0.05323447
Cl      -1.12319011      -0.47590333       0.94533647      -0.04988319       0.00787559      -0.02442640       0.73133009       0.20713264      -0.47075619
Br       3.62710362      -0.11924477      -0.69879173      -0.01661011       0.00605030       0.07965451       0.36103514      -0.01914031      -0.04937674
H        1.38851835      -0.51107799       0.63915285       0.03488634      -0.00621489      -0.05474626       0.27110188       0.11499812      -0.23740219
H        0.11556753       1.79274590       0.64095540       0.03678654      -0.00213726      -0.00561877       0.02197571       0.27500427       0.04369188
C        0.62991329      -0.71589701      -1.33258892      -0.00822148      -0.02301856      -0.01159537       0.03961120       0.04022519       0.04104919
N        0.30337351      -1.26825929      -2.32190928       0.00429076       0.01583345       0.01944162       0.08932996       0.05472357       0.01791678
C        0.47174846       2.13193103      -1.45473159      -0.03951733       0.00014860      -0.04492261      -0.02348844      -0.03873393       0.01594971
H        1.21831320       1.89357450      -2.21599847      -0.06517703       0.01062397       0.02008858       0.00363896      -0.04141932       0.03491278
H       -0.49903154       1.76281298      -1.78866067       0.00575830       0.03902352       0.04109792      -0.02532471       0.01556912      -0.03295559
H        0.41104325       3.22017160      -1.36232237       0.00325004      -0.02738763      -0.00825744       0.01080194      -0.02582705       0.01322600
13
Properties=species:S:1:pos:R:3:mp2_forces:R:3:forces:R:3 R1=CN R2=H R3=H R4=CH3 lg=Cl nu=Br rxn-id=1217 mp2_energy=-88244.40344011296 energy=-88243.65153833663 free_energy=-88244.40344022897 pbc="F F F"
C        0.84542163       0.00354494      -0.12045133       0.08001602       0.00790617       0.02152849      -1.13193107      -0.16444378       0.48072895
C        0.85837003       1.51516748      -0.12078720       0.02182266       0.01000990      -0.01290172      -0.04129857      -0.02970652       0.00710520
H        1.82501931       1.88967439       0.21283035      -0.00740150      -0.03871315      -0.01934256       0.01669740      -0.14448788      -0.03518287
Cl      -1.17391783      -0.49003486       0.97710505      -0.04988319       0.00787559      -0.02442640       0.40017239       0.11557477      -0.26234317
Br       3.60062038      -0.11740800      -0.69596979      -0.01661011       0.00605030       0.07965451       0.30900920      -0.02135966      -0.05104019
H        1.36898818      -0.51924581       0.65675490       0.03488634      -0.00621489      -0.05474626       0.28702648       0.06658747      -0.16066495
H        0.11430495       1.77338488       0.63803489       0.03678654      -0.00213726      -0.00561877       0.01681462       0.17075513       0.02275473
C        0.62732876      -0.71874344      -1.33523410      -0.00822148      -0.02301856      -0.01159537       0.10976404       0.02346031      -0.02076104
N        0.29742142      -1.27186378      -2.32313556       0.00429076       0.01583345       0.01944162       0.05026152       0.02709953       0.00450798
C        0.47336601       2.13446271      -1.45576749      -0.03951733       0.00014860      -0.04492261      -0.01326030      -0.01873226       0.00813411
H        1.21791711       1.89614023      -2.21841703      -0.06517703       0.01062397       0.02008858       0.00344626      -0.02235131       0.01945494
H       -0.49737927       1.76172144      -1.78624334       0.00575830       0.03902352       0.04109792      -0.01346568       0.00961644      -0.01919945
H        0.41048324       3.22174512      -1.36312231       0.00325004      -0.02738763      -0.00825744       0.00676371      -0.01201224       0.00650576
13
Properties=species:S:1:pos:R:3:mp2_forces:R:3:forces:R:3 R1=CN R2=H R3=H R4=CH3 lg=Cl nu=Br rxn-id=1217 mp2_energy=-88244.40344011296 energy=-88243.5345063816 free_energy=-88244.40344022897 pbc="F F F"
C        0.93703045       0.01657570      -0.15866348       0.08001602       0.00790617       0.02152849      -0.40309625      -0.04749856       0.16522647
C        0.86171327       1.51750092      -0.12119753       0.02182266       0.01000990      -0.01290172      -0.00956389      -0.00451400       0.00334625
H        1.82366065       1.90132279       0.21555789      -0.00740150      -0.03871315      -0.01934256       0.00604137      -0.04705640      -0.01156411
Cl      -1.20516604      -0.49886487       0.99675813      -0.04988319       0.00787559      -0.02442640       0.13026218       0.03749018      -0.08927560
Br       3.57401013      -0.11515060      -0.69272038      -0.01661011       0.00605030       0.07965451       0.10246093      -0.00568009      -0.02728362
H        1.34546548      -0.52472154       0.67073254       0.03488634      -0.00621489      -0.05474626       0.10887340       0.01500890      -0.03922517
H        0.11303840       1.75953831       0.63620344       0.03678654      -0.00213726      -0.00561877       0.00387417       0.05511065       0.00578993
C        0.61851275      -0.72080983      -1.33344764      -0.00822148      -0.02301856      -0.01159537       0.04352949       0.00292465      -0.01349378
N        0.29369305      -1.27361419      -2.32315603       0.00429076       0.01583345       0.01944162       0.01701994       0.00929118       0.00190420
C        0.47448940       2.13575387      -1.45635277      -0.03951733       0.00014860      -0.04492261      -0.00328654      -0.00539751       0.00213402
H        1.21764907       1.89766311      -2.21995097      -0.06517703       0.01062397       0.02008858       0.00290952      -0.00795084       0.00709304
H       -0.49631172       1.76090908      -1.78469418       0.00575830       0.03902352       0.04109792      -0.00271346       0.00282185      -0.00749815
H        0.41015904       3.22244255      -1.36347199       0.00325004      -0.02738763      -0.00825744       0.00368913      -0.00455001       0.00284651
13
Properties=species:S:1:pos:R:3:mp2_forces:R:3:forces:R:3 R1=CN R2=H R3=H R4=CH3 lg=Cl nu=Br rxn-id=1217 mp2_energy=-88244.40344011296 energy=-88243.54421812043 free_energy=-88244.40344022897 pbc="F F F"
C        1.03253924       0.02373920      -0.19264244       0.08001602       0.00790617       0.02152849       0.53682897       0.03663008      -0.18150384
C        0.86256112       1.51683232      -0.12140456       0.02182266       0.01000990      -0.01290172       0.00340778      -0.00460329       0.00084473
H        1.82155663       1.91134194       0.21831458      -0.00740150      -0.03871315      -0.01934256      -0.01514042       0.05606906       0.01810627
Cl      -1.22705236      -0.50461358       1.00993083      -0.04988319       0.00787559      -0.02442640      -0.10721435      -0.02773211       0.05899398
Br       3.54261842      -0.11177778      -0.68905553      -0.01661011       0.00605030       0.07965451      -0.20050402       0.02546221       0.00582476
H        1.31790369      -0.52659647       0.68013285       0.03488634      -0.00621489      -0.05474626      -0.15302341      -0.01094087       0.06280475
H        0.11209564       1.74755788       0.63476986       0.03678654      -0.00213726      -0.00561877      -0.00895688      -0.06843153      -0.01080944
C        0.60710394      -0.72127618      -1.32850908      -0.00822148      -0.02301856      -0.01159537      -0.06498000      -0.00526784       0.02936654
N        0.29107087      -1.27333972      -2.32136803       0.00429076       0.01583345       0.01944162      -0.01309741       0.00756111       0.01642690
C        0.47559334       2.13569070      -1.45645563      -0.03951733       0.00014860      -0.04492261       0.00895417      -0.00281861      -0.00037250
H        1.21752588       1.89859702      -2.22129924      -0.06517703       0.01062397       0.02008858       0.00441502       0.00360391      -0.00564800
H       -0.49563028       1.76008361      -1.78344249       0.00575830       0.03902352       0.04109792       0.00693934      -0.00558239       0.00314948
H        0.41005780       3.22230636      -1.36337408       0.00325004      -0.02738763      -0.00825744       0.00237122      -0.00394975       0.00281638
13
Properties=species:S:1:pos:R:3:mp2_forces:R:3:forces:R:3 R1=CN R2=H R3=H R4=CH3 lg=Cl nu=Br rxn-id=1217 mp2_energy=-88244.40344011296 energy=-88243.67343391095 free_energy=-88244.40344022897 pbc="F F F"
C        1.13002685       0.02635377      -0.22294766       0.08001602       0.00790617       0.02152849       1.13988211       0.02754292      -0.34574669
C        0.86736605       1.51452723      -0.12352767       0.02182266       0.01000990      -0.01290172       0.05350720      -0.02780002      -0.02268211
H        1.81916956       1.92454694       0.22197575      -0.00740150      -0.03871315      -0.01934256      -0.03393865       0.15405337       0.04895886
Cl      -1.24874305      -0.50990347       1.02312002      -0.04988319       0.00787559      -0.02442640      -0.23721243      -0.05878702       0.14353846
Br       3.50142687      -0.10728124      -0.68462354      -0.01661011       0.00605030       0.07965451      -0.50736871       0.05861813       0.03398316
H        1.28875062      -0.52527516       0.68507704       0.03488634      -0.00621489      -0.05474626      -0.33452896       0.01518327       0.06679655
H        0.11209574       1.73175367       0.63242420       0.03678654      -0.00213726      -0.00561877      -0.00781234      -0.18637271      -0.03251975
C        0.60014663      -0.71994695      -1.32359023      -0.00822148      -0.02301856      -0.01159537      -0.08288121       0.01394121       0.06244136
N        0.28774658      -1.27183098      -2.31761920       0.00429076       0.01583345       0.01944162      -0.04017896       0.02235607       0.04889961
C        0.47730238       2.13500426      -1.45642597      -0.03951733       0.00014860      -0.04492261       0.02437684      -0.00995572      -0.00011891
H        1.21738998       1.89986880      -2.22344846      -0.06517703       0.01062397       0.02008858       0.00740971       0.01502768      -0.02223650
H       -0.49477806       1.75887176      -1.78170371       0.00575830       0.03902352       0.04109792       0.01593314      -0.01563111       0.01333806
H        0.41004376       3.22185668      -1.36311352       0.00325004      -0.02738763      -0.00825744       0.00281226      -0.00817607       0.00534790
13
Properties=species:S:1:pos:R:3:mp2_forces:R:3:forces:R:3 R1=CN R2=H R3=H R4=CH3 lg=Cl nu=Br rxn-id=1217 mp2_energy=-88244.40344011296 energy=-88243.89439374726 free_energy=-88244.40344022897 pbc="F F F"
C        1.23791671       0.02382835      -0.25008823       0.08001602       0.00790617       0.02152849       1.04027730      -0.02684292      -0.25264095
C        0.88360511       1.51055256      -0.12948391       0.02182266       0.01000990      -0.01290172       0.15678702      -0.03875734      -0.05570364
H        1.81550396       1.94811693       0.22919098      -0.00740150      -0.03871315      -0.01934256      -0.03742828       0.22727860       0.07139228
Cl      -1.27238040      -0.51562640       1.04026253      -0.04988319       0.00787559      -0.02442640      -0.21582040      -0.04838578       0.14791509