13
Properties=species:S:1:pos:R:3:mp2_forces:R:3:forces:R:3 R1=H R2=CN R3=CH3 R4=H lg=Cl nu=F rxn-id=415 mp2_energy=-20943.19784033309 energy=-20943.19784033309 free_energy=-20943.19784033309 pbc="F F F"
C        0.56701092      -0.04087978      -0.01418366       0.00925274       0.00650327      -0.00817962       0.00925274       0.00650327      -0.00817962
C        0.72409428       1.47317442       0.01442592      -0.01250756       0.02570449      -0.00104772      -0.01250756       0.02570449      -0.00104772
H        1.80279303       1.59368592      -0.09122875      -0.01768226       0.00354135       0.00135737      -0.01768226       0.00354135       0.00135737
Cl      -1.19187594      -0.45143763      -0.45116290       0.02297368      -0.01985542      -0.00825375       0.02297368      -0.01985542      -0.00825375
F        2.89880141       0.11952746       0.53119922       0.02544511      -0.05689576      -0.02845136       0.02544511      -0.05689576      -0.02845136
H        1.17745060      -0.47740962      -0.79600878      -0.01532942      -0.00156298       0.04741053      -0.01532942      -0.00156298       0.04741053
H        0.18716723       1.88906070      -0.84477299      -0.00596509       0.01353436      -0.00697174      -0.00596509       0.01353436      -0.00697174
C        0.85055707      -0.70728902       1.25311415       0.01216083       0.04516178      -0.03418092       0.01216083       0.04516178      -0.03418092
N        0.78702858      -1.27775618       2.27997755      -0.00002413      -0.03437737       0.03988231      -0.00002413      -0.03437737       0.03988231
C        0.25100915       2.09839432       1.31700076       0.00658948       0.00649761      -0.01075217       0.00658948       0.00649761      -0.01075217
H       -0.76448657       1.78824193       1.58290167       0.00698465       0.01966072      -0.02008833       0.00698465       0.01966072      -0.02008833
H        0.92851572       1.79638799       2.11757000      -0.01512358      -0.00771172       0.00275279      -0.01512358      -0.00771172       0.00275279
H        0.26997415       3.19056900       1.24488438      -0.01677442      -0.00020034       0.02652262      -0.01677442      -0.00020034       0.02652262
13
Properties=species:S:1:pos:R:3:mp2_forces:R:3:forces:R:3 R1=H R2=CN R3=CH3 R4=H lg=Cl nu=F rxn-id=415 mp2_energy=-20943.19784033309 energy=-20943.189189821373 free_energy=-20943.19784033309 pbc="F F F"
C        0.56643929      -0.03846809      -0.01324286       0.00925274       0.00650327      -0.00817962      -0.00167811      -0.00225871      -0.00092648
C        0.71110781       1.47812836       0.00581094      -0.01250756       0.02570449      -0.00104772       0.00560649      -0.00242973       0.00190496
H        1.78721550       1.61316579      -0.12633735      -0.01768226       0.00354135       0.00135737       0.00664237      -0.00488206       0.00859187
Cl      -1.16951702      -0.47751754      -0.50360958       0.02297368      -0.01985542      -0.00825375      -0.00706039       0.00886718       0.00975683
F        2.89540133       0.12240656       0.53291784       0.02544511      -0.05689576      -0.02845136       0.00668800       0.00336302      -0.01277992
H        1.21098131      -0.47781106      -0.76208589      -0.01532942      -0.00156298       0.04741053      -0.00860164      -0.00310311      -0.00730425
H        0.14831748       1.88966319      -0.83955595      -0.00596509       0.01353436      -0.00697174       0.01045368      -0.00213303      -0.00164280
C        0.81951181      -0.69644658       1.26422496       0.01216083       0.04516178      -0.03418092       0.00720469       0.00070923       0.00021257
N        0.74355512      -1.26758757       2.29047388      -0.00002413      -0.03437737       0.03988231       0.01081616       0.00670579       0.00395235
C        0.26729052       2.09566496       1.32164544       0.00658948       0.00649761      -0.01075217      -0.00509946      -0.00100935      -0.00006302
H       -0.73576907       1.77335532       1.61619266       0.00698465       0.01966072      -0.02008833      -0.01151912       0.00440447      -0.01386744
H        0.97219972       1.79154025       2.09794053      -0.01512358      -0.00771172       0.00275279      -0.01696148      -0.00756931       0.00883436
H        0.27130584       3.18817592       1.25934195      -0.01677442      -0.00020034       0.02652262       0.00350880      -0.00066439       0.00333097
13
Properties=species:S:1:pos:R:3:mp2_forces:R:3:forces:R:3 R1=H R2=CN R3=CH3 R4=H lg=Cl nu=F rxn-id=415 mp2_energy=-20943.19784033309 energy=-20943.183496796984 free_energy=-20943.19784033309 pbc="F F F"
C        0.57053022      -0.04005603      -0.01709718       0.00925274       0.00650327      -0.00817962      -0.00428852      -0.00339606      -0.00285852
C        0.69876270       1.47921525      -0.00149362      -0.01250756       0.02570449      -0.00104772       0.00612819      -0.00391045       0.00031458
H        1.76738693       1.63425953      -0.16098346      -0.01768226       0.00354135       0.00135737       0.00856613      -0.01057303       0.00980977
Cl      -1.14896825      -0.49966493      -0.54741353       0.02297368      -0.01985542      -0.00825375      -0.01255913       0.00944926       0.00984488
F        2.87693780       0.13363743       0.56633490       0.02544511      -0.05689576      -0.02845136       0.00753982       0.01245193      -0.00628432
H        1.23746785      -0.47704776      -0.74713891      -0.01532942      -0.00156298       0.04741053      -0.01152722      -0.00305242      -0.01084655
H        0.10789025       1.88601305      -0.82973484      -0.00596509       0.01353436      -0.00697174       0.01217891      -0.00091224      -0.00397967
C        0.79594031      -0.69311134       1.26778724       0.01216083       0.04516178      -0.03418092       0.00960749       0.00308903       0.00071408
N        0.69959992      -1.26287078       2.29302513      -0.00002413      -0.03437737       0.03988231       0.01331899       0.00949870       0.00489716
C        0.28722774       2.09312626       1.32668643       0.00658948       0.00649761      -0.01075217      -0.00501115      -0.00230725      -0.00043655
H       -0.70064991       1.75652392       1.65447117       0.00698465       0.01966072      -0.02008833      -0.01274701       0.00390068      -0.01425747
H        1.02308725       1.79888336       2.07781539      -0.01512358      -0.00771172       0.00275279      -0.01656668      -0.01287068       0.00739487
H        0.27282682       3.18536154       1.26145786      -0.01677442      -0.00020034       0.02652262       0.00536018      -0.00136746       0.00568774
13
Properties=species:S:1:pos:R:3:mp2_forces:R:3:forces:R:3 R1=H R2=CN R3=CH3 R4=H lg=Cl nu=F rxn-id=415 mp2_energy=-20943.19784033309 energy=-20943.175360647732 free_energy=-20943.19784033309 pbc="F F F"
C        0.58729262      -0.04195640      -0.02084070       0.00925274       0.00650327      -0.00817962      -0.03242706      -0.00163357      -0.00944367
C        0.69113207       1.48185806      -0.01014412      -0.01250756       0.02570449      -0.00104772      -0.00462518      -0.00468167      -0.00393071
H        1.74322137       1.68343538      -0.21160951      -0.01768226       0.00354135       0.00135737       0.00972608      -0.05308764       0.02132510
Cl      -1.12605032      -0.51082824      -0.57698084       0.02297368      -0.01985542      -0.00825375      -0.01632445      -0.00131137       0.00723195
F        2.84043713       0.13045825       0.62211836       0.02544511      -0.05689576      -0.02845136       0.02686845       0.02721865       0.01464882
H        1.26236953      -0.48309580      -0.74109289      -0.01532942      -0.00156298       0.04741053      -0.01399958       0.01356372      -0.00466900
H        0.05731789       1.87375600      -0.81267549      -0.00596509       0.01353436      -0.00697174       0.01613695       0.01624577      -0.01634810
C        0.78638508      -0.69290901       1.26956666       0.01216083       0.04516178      -0.03418092       0.01318397       0.01242267      -0.00506396
N        0.65197494      -1.26430985       2.29010304      -0.00002413      -0.03437737       0.03988231       0.02451395       0.01726872      -0.00095535
C        0.31009814       2.09039977       1.33002662       0.00658948       0.00649761      -0.01075217      -0.00728920      -0.00426511      -0.00217661
H       -0.66310097       1.73802211       1.68264406       0.00698465       0.01966072      -0.02008833      -0.01366524       0.00617864      -0.00466542
H        1.07121769       1.80705094       2.05971550      -0.01512358      -0.00771172       0.00275279      -0.01095881      -0.02390201      -0.00453774
H        0.27574448       3.18238830       1.26288587      -0.01677442      -0.00020034       0.02652262       0.00886012      -0.00401680       0.00858469
13
Properties=species:S:1:pos:R:3:mp2_forces:R:3:forces:R:3 R1=H R2=CN R3=CH3 R4=H lg=Cl nu=F rxn-id=415 mp2_energy=-20943.19784033309 energy=-20943.120993513527 free_energy=-20943.19784033309 pbc="F F F"
C        0.66222804      -0.04310118      -0.00967305       0.00925274       0.00650327      -0.00817962      -0.48416512      -0.07086512      -0.13257376
C        0.72082338       1.48921970      -0.00937439      -0.01250756       0.02570449      -0.00104772      -0.05359474      -0.03090623      -0.01725120
H        1.74055290       1.78955063      -0.25069715      -0.01768226       0.00354135       0.00135737       0.00936217      -0.16330618       0.03124119
Cl      -1.12884015      -0.48438466      -0.54939361       0.02297368      -0.01985542      -0.00825375       0.14515306       0.03272751       0.05246543
F        2.76584706       0.11541651       0.63299407       0.02544511      -0.05689576      -0.02845136       0.21932290       0.02023305       0.11955169
H        1.26075972      -0.52164187      -0.77706036      -0.01532942      -0.00156298       0.04741053       0.02748259       0.08431334       0.09214683
H        0.04065907       1.83175094      -0.79343646      -0.00596509       0.01353436      -0.00697174       0.00937355       0.08140585      -0.03548088
C        0.79159861      -0.71511001       1.27892196       0.01216083       0.04516178      -0.03418092       0.09749044       0.05918903      -0.04104017
N        0.62383749      -1.28596309       2.29605534      -0.00002413      -0.03437737       0.03988231       0.03759921       0.04048316      -0.05244306
C        0.32134250       2.09117664       1.32936227       0.00658948       0.00649761      -0.01075217      -0.01241415      -0.01457890      -0.01005986
H       -0.65347411       1.72455762       1.65997931       0.00698465       0.01966072      -0.02008833      -0.01088094       0.00752959       0.01663889
H        1.07060194       1.81963668       2.07462907      -0.01512358      -0.00771172       0.00275279       0.00419056      -0.03676017      -0.02811312
H        0.27210318       3.18316158       1.26140957      -0.01677442      -0.00020034       0.02652262       0.01108048      -0.00946493       0.00491801
13
Properties=species:S:1:pos:R:3:mp2_forces:R:3:forces:R:3 R1=H R2=CN R3=CH3 R4=H lg=Cl nu=F rxn-id=415 mp2_energy=-20943.19784033309 energy=-20943.035267978667 free_energy=-20943.19784033309 pbc="F F F"
C        0.74939813      -0.02970526       0.01426604       0.00925274       0.00650327      -0.00817962      -0.47016601      -0.07706090      -0.13691329
C        0.73091701       1.49452446      -0.00681876      -0.01250756       0.02570449      -0.00104772      -0.01073070      -0.01576900      -0.00681862
H        1.73957966       1.81775576      -0.25675351      -0.01768226       0.00354135       0.00135737       0.01231908      -0.07590196       0.01074968
Cl      -1.15901835      -0.49009620      -0.55842633       0.02297368      -0.01985542      -0.00825375       0.15098366       0.04500996       0.05586714
F        2.72735988       0.11572084       0.61339637       0.02544511      -0.05689576      -0.02845136       0.13350381       0.02020376       0.08496260
H        1.25624371      -0.53545824      -0.79352829      -0.01532942      -0.00156298       0.04741053       0.06234439       0.04620597       0.05205414
H        0.03889332       1.81580237      -0.78850762      -0.00596509       0.01353436      -0.00697174       0.00431309       0.03635810      -0.01636618
C        0.77349300      -0.72548283       1.28639847       0.01216083       0.04516178      -0.03418092       0.09564382       0.03363860      -0.01032597
N        0.61718375      -1.29264088       2.30562932      -0.00002413      -0.03437737       0.03988231       0.01437057       0.02047080      -0.02519215
C        0.32400649       2.09309612       1.33086305       0.00658948       0.00649761      -0.01075217      -0.00111945      -0.00842280      -0.00554355
H       -0.65134313       1.72227589       1.65582661       0.00698465       0.01966072      -0.02008833      -0.00301692       0.00116682       0.00395158
H        1.07008267       1.82416163       2.07938253      -0.01512358      -0.00771172       0.00275279       0.00407751      -0.02159877      -0.01337948
H        0.27124350       3.18431584       1.26198868      -0.01677442      -0.00020034       0.02652262       0.00747716      -0.00430057       0.00695412
13
Properties=species:S:1:pos:R:3:mp2_forces:R:3:forces:R:3 R1=H R2=CN R3=CH3 R4=H lg=Cl nu=F rxn-id=415 mp2_energy=-20943.19784033309 energy=-20943.02941274048 free_energy=-20943.19784033309 pbc="F F F"
C        0.84127138      -0.01414662       0.04128706       0.00925274       0.00650327      -0.00817962       0.43898007       0.06783050       0.12850319
C        0.73339986       1.49727315      -0.00597567      -0.01250756       0.02570449      -0.00104772       0.00672403       0.00492683       0.00192489
H        1.73814239       1.83070503      -0.25934050      -0.01768226       0.00354135       0.00135737      -0.00533354       0.05013421      -0.01859790
Cl      -1.19351814      -0.49805834      -0.56890050       0.02297368      -0.01985542      -0.00825375      -0.15627053      -0.02972886      -0.04261328
F        2.70208830       0.11575732       0.59900033       0.02544511      -0.05689576      -0.02845136      -0.12500697       0.01602721      -0.06113756
H        1.24490467      -0.54274170      -0.80368743      -0.01532942      -0.00156298       0.04741053      -0.05808068      -0.01646534      -0.03411689
H        0.03808003       1.80701699      -0.78680383      -0.00596509       0.01353436      -0.00697174      -0.00642256      -0.04874307      -0.00058532
C        0.75485302      -0.73178841       1.28851886       0.01216083       0.04516178      -0.03418092      -0.09454594      -0.02480536       0.00397457
N        0.61500147      -1.29575292       2.31039732      -0.00002413      -0.03437737       0.03988231      -0.01137923      -0.00655100       0.01546563
C        0.32452345       2.09387562       1.33155670       0.00658948       0.00649761      -0.01075217       0.00446575      -0.00175569       0.00169433
H       -0.65072011       1.72125657       1.65367543       0.00698465       0.01966072      -0.02008833       0.00489042      -0.00901093      -0.01168436
H        1.06919409       1.82625860       2.08179578      -0.01512358      -0.00771172       0.00275279      -0.00085505       0.00030972       0.00909982
H        0.27081922       3.18461423       1.26219299      -0.01677442      -0.00020034       0.02652262       0.00283424      -0.00216821       0.00807287
13
Properties=species:S:1:pos:R:3:mp2_forces:R:3:forces:R:3 R1=H R2=CN R3=CH3 R4=H lg=Cl nu=F rxn-id=415 mp2_energy=-20943.19784033309 energy=-20943.163375236407 free_energy=-20943.19784033309 pbc="F F F"
C        0.93728950      -0.00141247       0.06894003       0.00925274       0.00650327      -0.00817962       1.59703526       0.21357457       0.46063593
C        0.73332670       1.49717345      -0.00492176      -0.01250756       0.02570449      -0.00104772      -0.00079988      -0.00190467       0.01512702
H        1.73571053       1.84269436      -0.26262384      -0.01768226       0.00354135       0.00135737      -0.03683165       0.19221247      -0.06025644
Cl      -1.21602527      -0.50413660      -0.57648453       0.02297368      -0.01985542      -0.00825375      -0.39681282      -0.09849235      -0.12666414
F        2.67291153       0.11397229       0.58203931       0.02544511      -0.05689576      -0.02845136      -0.48276590      -0.01024353      -0.26959956
H        1.22816396      -0.54647150      -0.80880132      -0.01532942      -0.00156298       0.04741053      -0.26989648      -0.05297021      -0.08339715
H        0.03736086       1.79918916      -0.78605675      -0.00596509       0.01353436      -0.00697174      -0.01566365      -0.14079544       0.00623802
C        0.73368318      -0.73638823       1.28773976       0.01216083       0.04516178      -0.03418092      -0.35435610      -0.07632475      -0.01186999
N        0.61233808      -1.29766496       2.31299796      -0.00002413      -0.03437737       0.03988231      -0.04528174      -0.02625754       0.04088753
C        0.32472306       2.09396907       1.33199078       0.00658948       0.00649761      -0.01075217       0.00645972      -0.00190453       0.00711347
H       -0.65026162       1.72049020       1.65263057       0.00698465       0.01966072      -0.02008833       0.01034992      -0.01791248      -0.02121912
H        1.06850174       1.82826255       2.08404890      -0.01512358      -0.00771172       0.00275279      -0.00804484       0.02433409       0.03535772
H        0.27031739       3.18459219       1.26221746      -0.01677442      -0.00020034       0.02652262      -0.00339183      -0.00331565       0.00764671
13
Properties=species:S:1:pos:R:3:mp2_forces:R:3:forces:R:3 R1=H R2=CN R3=CH3 R4=H lg=Cl nu=F rxn-id=415 mp2_energy=-20943.19784033309 energy=-20943.481463367487 free_energy=-20943.19784033309 pbc="F F F"
C        1.03531355       0.00867813       0.09504522       0.00925274       0.00650327      -0.00817962       3.13767507       0.32617907       0.83619601
C        0.73410361       1.49572127      -0.00294455      -0.01250756       0.02570449      -0.00104772       0.02521117      -0.04524375       0.06127374
H        1.73327844       1.85342249      -0.26591581      -0.01768226       0.00354135       0.00135737      -0.07511644       0.33864735      -0.11293541
Cl      -1.23514380      -0.50957911      -0.58313664       0.02297368      -0.01985542      -0.00825375      -0.63706406      -0.17335224      -0.21589750
F        2.63021009       0.11085130       0.56258239       0.02544511      -0.05689576      -0.02845136      -1.36271738      -0.08167896      -0.60985550
H        1.21345153      -0.54740465      -0.81017691      -0.01532942      -0.00156298       0.04741053      -0.46052136      -0.02071709      -0.03992676
H        0.03712030       1.79239758      -0.78568796      -0.00596509       0.01353436      -0.00697174      -0.01224371      -0.23147964       0.00724533
C        0.71686674      -0.73907779       1.28702065       0.01216083       0.04516178      -0.03418092      -0.53971564      -0.08549036      -0.02236166
N        0.60990300      -1.29897969       2.31449269      -0.00002413      -0.03437737       0.03988231      -0.08180143      -0.03611614       0.04387654
C        0.32510202       2.09386512       1.33225852       0.00658948       0.00649761      -0.01075217       0.01620921      -0.00686305       0.00984741
H       -0.64992728       1.71987206       1.65192556       0.00698465       0.01966072      -0.02008833       0.01439365      -0.02493198      -0.02528573
H        1.06792216       1.82992403       2.08596082      -0.01512358      -0.00771172       0.00275279      -0.01394963       0.04513862       0.05874301
H        0.26983926       3.18457877       1.26229259      -0.01677442      -0.00020034       0.02652262      -0.01035945      -0.00409182       0.00908051
13
Properties=species:S:1:pos:R:3:mp2_forces:R:3:forces:R:3 R1=H R2=CN R3=CH3 R4=H lg=Cl nu=F rxn-id=415 mp2_energy=-20943.19784033309 energy=-20944.025781533703 free_energy=-20943.19784033309 pbc="F F F"
C        1.12734357       0.01671737       0.11989926       0.00925274       0.00650327      -0.00817962       2.39051682       0.21867601       0.65203776
C        0.74199069       1.49323564       0.00105487      -0.01250756       0.02570449      -0.00104772       0.21732913      -0.07387133       0.11042757
H        1.73100288       1.87076100      -0.27122796      -0.01768226       0.00354135       0.00135737      -0.06121739       0.43113998      -0.13982420
Cl      -1.26299799      -0.51774613      -0.59327541       0.02297368      -0.01985542      -0.00825375      -0.72736360      -0.20403130      -0.25312604
F        2.58332499       0.10656734       0.54190704       0.02544511      -0.05689576      -0.02845136      -1.23482939      -0.09327869      -0.53362287
H        1.20272999      -0.54527325      -0.80679924      -0.01532942      -0.00156298       0.04741053      -0.26767677       0.06546413       0.09095565
H        0.03834863       1.78079622      -0.78428270      -0.00596509       0.01353436      -0.00697174       0.02591110      -0.30320843       0.02383830
C        0.70498003      -0.73993874       1.28611655       0.01216083       0.04516178      -0.03418092      -0.31264492      -0.02526565      -0.02353275
N        0.60697823      -1.29975089       2.31489367      -0.00002413      -0.03437737       0.03988231      -0.07210787      -0.01014844       0.00304851
C        0.32672244       2.09349327       1.33276709       0.00658948       0.00649761      -0.01075217       0.04404117      -0.01603662       0.00935974
H       -0.64859845       1.71838214       1.65071831       0.00698465       0.01966072      -0.02008833       0.03356994      -0.04406026      -0.03694662
H        1.06673764       1.83295605       2.08969254      -0.01512358      -0.00771172       0.00275279      -0.02999172       0.06707146       0.09019193
H        0.26947698       3.18406951       1.26225255      -0.01677442      -0.00020034       0.02652262      -0.00553650      -0.01245086       0.00719302
13
Properties=species:S:1:pos:R:3:mp2_forces:R:3:forces:R:3 R1=H R2=CN R3=CH3 R4=H lg=Cl nu=F rxn-id=415 mp2_energy=-20943.19784033309 energy=-20944.362999222314 free_energy=-20943.19784033309 pbc="F F F"
C        1.23605139       0.03316334       0.15291905       0.00925274       0.00650327      -0.00817962       0.37961869       0.06081241       0.12117912
C        0.78582401       1.49473229       0.01819597      -0.01250756       0.02570449      -0.00104772       0.14801242       0.00011841       0.05230706
H        1.72563148       1.94964317      -0.29307760      -0.01768226       0.00354135       0.00135737      -0.01185564       0.26446962      -0.08008686
Cl      -1.38680753      -0.55554787      -0.64729215       0.02297368      -0.01985542      -0.00825375      -0.44940962      -0.12003850      -0.18120044
F        2.61299796       0.09491838       0.50756118       0.02544511      -0.05689576      -0.02845136       0.10901592      -0.01980842      -0.10591480
H        1.17429645      -0.52677590      -0.77982842      -0.01532942      -0.00156298       0.04741053      -0.09123470       0.06611311       0.08211312
H        0.04440486       1.69566118      -0.76337029      -0.00596509       0.01353436      -0.00697174       0.01742318      -0.29864825       0.06525890
C        0.68943887      -0.72838207       1.28400279       0.01216083       0.04516178      -0.03418092      -0.05163107       0.03971943      -0.00145020
N        0.57367926      -1.29699341       2.30687251      -0.00002413      -0.03437737       0.03988231      -0.11250921       0.01054137      -0.02553895
C        0.33894334       2.09390303       1.33941993       0.00658948       0.00649761      -0.01075217       0.04172491      -0.00327115       0.01875999
H       -0.63634808       1.70379735       1.64184929       0.00698465       0.01966072      -0.02008833       0.03806764      -0.05313206      -0.03849172
H        1.06559898       1.85341780       2.11451225      -0.01512358      -0.00771172       0.00275279      -0.00500659       0.05620397       0.08548673
H        0.26432863       3.18273221       1.26195207      -0.01677442      -0.00020034       0.02652262      -0.01221593      -0.00307994       0.00757805
13
Properties=species:S:1:pos:R:3:mp2_forces:R:3:forces:R:3 R1=H R2=CN R3=CH3 R4=H lg=Cl nu=F rxn-id=415 mp2_energy=-20943.19784033309 energy=-20944.50068147847 free_energy=-20943.19784033309 pbc="F F F"
C        1.29647286       0.04629324       0.16950629       0.00925274       0.00650327      -0.00817962       0.07798761       0.02901715       0.02194333
C        0.83786303       1.49846861       0.04229330      -0.01250756       0.02570449      -0.00104772       0.02104794      -0.00147429       0.01804320
H        1.72817737       2.02728243      -0.30911881      -0.01768226       0.00354135       0.00135737      -0.01209581       0.05308951      -0.03053902
Cl      -1.52911855      -0.57233389      -0.71726463       0.02297368      -0.01985542      -0.00825375      -0.11668466      -0.01098282      -0.08635478
F        2.68741600       0.06085489       0.43760428       0.02544511      -0.05689576      -0.02845136       0.04922989      -0.01324383      -0.04089482
H        1.14167964      -0.50731465      -0.75266660      -0.01532942      -0.00156298       0.04741053      -0.01091968       0.01208856       0.02566468
H        0.06390201       1.57833352      -0.72129019      -0.00596509       0.01353436      -0.00697174      -0.00579362      -0.11602504       0.04371482
C        0.72680029      -0.70060934       1.30087241       0.01216083       0.04516178      -0.03418092       0.02430214       0.02508561       0.00817096
N        0.52540275      -1.27782290       2.30380767      -0.00002413      -0.03437737       0.03988231      -0.06962583       0.02364785      -0.00837726
C        0.34759070       2.09631964       1.35081333       0.00658948       0.00649761      -0.01075217       0.01823301       0.00395833       0.01783148
H       -0.62694302       1.67735541       1.61306488       0.00698465       0.01966072      -0.02008833       0.02732391      -0.03513754       0.00015643
H        1.04502396       1.88583257       2.16334640      -0.01512358      -0.00771172       0.00275279       0.01404588       0.03487945       0.03009876
H        0.24377259       3.18160999       1.26274822      -0.01677442      -0.00020034       0.02652262      -0.01705078      -0.00490295       0.00054223
13
Properties=species:S:1:pos:R:3:mp2_forces:R:3:forces:R:3 R1=H R2=CN R3=CH3 R4=H lg=Cl nu=F rxn-id=415 mp2_energy=-20943.19784033309 energy=-20944.531955778202 free_energy=-20943.19784033309 pbc="F F F"
C        1.32325720       0.05061815       0.18440342       0.00925274       0.00650327      -0.00817962       0.03798744       0.01259272      -0.00223706
C        0.84732761       1.49476072       0.05903351      -0.01250756       0.02570449      -0.00104772      -0.01572795      -0.01191477       0.00571331
H        1.70201481       2.05081020      -0.34273755      -0.01768226       0.00354135       0.00135737      -0.01874967      -0.01252141      -0.00977167
Cl      -1.59124071      -0.59254295      -0.84079764       0.02297368      -0.01985542      -0.00825375      -0.00929829       0.02291124      -0.06075332
F        2.72159079       0.04956013       0.40689874       0.02544511      -0.05689576      -0.02845136       0.00633666       0.00963308      -0.00551291
H        1.13395503      -0.50335030      -0.73148787      -0.01532942      -0.00156298       0.04741053       0.00003766      -0.01093596       0.00584381
H        0.04215520       1.51055278      -0.67473427      -0.00596509       0.01353436      -0.00697174      -0.02042268      -0.03262169       0.01903939
C        0.75786833      -0.68615813       1.32367259       0.01216083       0.04516178      -0.03418092       0.00122565       0.00377845       0.00134428
N        0.48049441      -1.26243466       2.30760124      -0.00002413      -0.03437737       0.03988231      -0.02449643       0.02332220       0.01159214
C        0.36563331       2.10525891       1.36692083       0.00658948       0.00649761      -0.01075217       0.00969191      -0.00302964       0.01073115
H       -0.59945226       1.66913520       1.63676727       0.00698465       0.01966072      -0.02008833       0.02235228      -0.01681462       0.02836841
H        1.06763176       1.92199578       2.18376790      -0.01512358      -0.00771172       0.00275279       0.02374328       0.02404033       0.00069068
H        0.23680416       3.18606366       1.26440839      -0.01677442      -0.00020034       0.02652262      -0.01267988      -0.00843991      -0.00504820
13
Properties=species:S:1:pos:R:3:mp2_forces:R:3:forces:R:3 R1=H R2=CN R3=CH3 R4=H lg=Cl nu=F rxn-id=415 mp2_energy=-20943.19784033309 energy=-20944.546294404114 free_energy=-20943.19784033309 pbc="F F F"
C        1.32796060       0.05251659       0.19543510       0.00925274       0.00650327      -0.00817962       0.02614717       0.00881416      -0.00885923
C        0.83566846       1.48942879       0.06605754      -0.01250756       0.02570449      -0.00104772      -0.02248619      -0.01503479       0.00497817
H        1.66714712       2.05049465      -0.37571997      -0.01768226       0.00354135       0.00135737      -0.01940855      -0.02222840      -0.00693128
Cl      -1.59571610      -0.61503446      -0.94412682       0.02297368      -0.01985542      -0.00825375       0.01122519       0.02524021      -0.05990623