14
Properties=species:S:1:pos:R:3:mp2_forces:R:3:forces:R:3 R1=H R2=CH3 R3=H R4=NO2 lg=F nu=F rxn-id=497 mp2_energy=-14197.073549695358 energy=-14197.073557404696 free_energy=-14197.073557404696 pbc="F F F"
C        0.45430907      -0.13300426       0.04157966      -0.00866997      -0.00154287       0.00089394      -0.00865875      -0.00155381       0.00087311
C        1.16470699       1.18077580      -0.11381794      -0.01260009       0.00008522       0.00227355      -0.01258036       0.00007220       0.00230043
H        2.23399131       0.82575017      -0.34561840      -0.00266001       0.01182721       0.01855149      -0.00264890       0.01182754       0.01855554
F       -0.94291424       0.05856916       0.16896925      -0.01230159      -0.01479983       0.00496226      -0.01231204      -0.01479210       0.00496501
F        3.29224885      -0.30751307      -0.38698739       0.03803428       0.06176915       0.04130049       0.03802368       0.06176497       0.04129940
H        0.61280376      -0.71435434      -0.86461347      -0.00322723      -0.00152115      -0.00211807      -0.00322352      -0.00151316      -0.00211191
H        1.10650588       1.80230179       0.77950225      -0.02633343       0.00390079       0.00153793      -0.02633283       0.00391279       0.00155269
C        0.98173688      -0.85445351       1.25982215       0.00164695      -0.01428288      -0.00839192       0.00164065      -0.01427492      -0.00839946
H        2.06936593      -0.76548682       1.21398928       0.00618245      -0.07224279      -0.06786980       0.00618673      -0.07223217      -0.06786164
H        0.55943064      -0.40265268       2.16285016       0.07753538       0.03069480       0.00604236       0.07752424       0.03069185       0.00604788
H        0.70816248      -1.91203338       1.23561412      -0.07609657       0.00356136       0.02484544      -0.07608707       0.00355868       0.02484384
N        0.61261495       1.98073849      -1.21640235       0.00543984       0.03611065       0.01970909       0.00541026       0.03596380       0.01958353
O        0.47456206       3.19670754      -1.04122972       0.02396968      -0.02306756      -0.01875198       0.02395548      -0.02295888      -0.01870425
O        0.35082381       1.41182967      -2.27709610      -0.01091969      -0.02049210      -0.02298477      -0.01089756      -0.02046676      -0.02294417
14
Properties=species:S:1:pos:R:3:mp2_forces:R:3:forces:R:3 R1=H R2=CH3 R3=H R4=NO2 lg=F nu=F rxn-id=497 mp2_energy=-14197.073549695358 energy=-14197.062953291565 free_energy=-14197.073557404696 pbc="F F F"
C        0.44417481      -0.12438229       0.05386456      -0.00866997      -0.00154287       0.00089394      -0.00977109      -0.00516073      -0.00347106
C        1.14974561       1.19128449      -0.09578011      -0.01260009       0.00008522       0.00227355      -0.00695874      -0.00631190      -0.00286666
H        2.22903521       0.85177560      -0.29843636      -0.00266001       0.01182721       0.01855149      -0.00152101      -0.00224290       0.00487268
F       -0.95027886       0.07083665       0.19992654      -0.01230159      -0.01479983       0.00496226      -0.00906223      -0.00564266       0.00279349
F        3.31822813      -0.25687398      -0.35563692       0.03803428       0.06176915       0.04130049       0.03759110       0.04681592       0.04221808
H        0.59507767      -0.68975898      -0.86427604      -0.00322723      -0.00152115      -0.00211807      -0.01831863      -0.00570210      -0.00595562
H        1.05439493       1.82785435       0.78369257      -0.02633343       0.00390079       0.00153793      -0.00769773      -0.00716860      -0.00218155
C        0.98759626      -0.87587284       1.24445728       0.00164695      -0.01428288      -0.00839192      -0.00044951      -0.00547230      -0.00825898
H        2.07575047      -0.86064110       1.12392252       0.00618245      -0.07224279      -0.06786980      -0.00284521      -0.03440564      -0.04010409
H        0.66448659      -0.39068673       2.17249252       0.07753538       0.03069480       0.00604236       0.04884504       0.01960824      -0.00393144
H        0.62615057      -1.90628076       1.24640900      -0.07609657       0.00356136       0.02484544      -0.03718251       0.00801873       0.01993225
N        0.62002972       1.96805992      -1.23014037       0.00543984       0.03611065       0.01970909      -0.00028239      -0.00256311      -0.00158578
O        0.46113295       3.18231759      -1.07391953       0.02396968      -0.02306756      -0.01875198       0.01682147      -0.00127615      -0.00003810
O        0.40282430       1.37954263      -2.29001417      -0.01091969      -0.02049210      -0.02298477      -0.00916854       0.00150320      -0.00142321
14
Properties=species:S:1:pos:R:3:mp2_forces:R:3:forces:R:3 R1=H R2=CH3 R3=H R4=NO2 lg=F nu=F rxn-id=497 mp2_energy=-14197.073549695358 energy=-14197.04462168096 free_energy=-14197.073557404696 pbc="F F F"
C        0.46691017      -0.12537879       0.05119310      -0.00866997      -0.00154287       0.00089394      -0.01530528      -0.00404480      -0.00308645
C        1.15278671       1.20240245      -0.08854231      -0.01260009       0.00008522       0.00227355      -0.00739144      -0.00900899      -0.00330054
H        2.22430581       0.86811778      -0.29994697      -0.00266001       0.01182721       0.01855149      -0.00121746      -0.01269942       0.00172943
F       -0.93435038       0.04399812       0.15836862      -0.01230159      -0.01479983       0.00496226      -0.01387515      -0.00956620       0.00420682
F        3.24451728      -0.34237771      -0.42315591       0.03803428       0.06176915       0.04130049       0.05798704       0.06502613       0.04568803
H        0.66213582      -0.69056870      -0.85734423      -0.00322723      -0.00152115      -0.00211807      -0.02503001      -0.00332393      -0.00758007
H        1.04623625       1.83650982       0.79192781      -0.02633343       0.00390079       0.00153793       0.00261742      -0.01179145      -0.00090530
C        0.98967954      -0.86340189       1.25970005       0.00164695      -0.01428288      -0.00839192      -0.00356011      -0.00614962      -0.00865272
H        2.07890504      -0.83951693       1.16273920       0.00618245      -0.07224279      -0.06786980      -0.00600520      -0.03628173      -0.04871300
H        0.63342085      -0.38419393       2.17828083       0.07753538       0.03069480       0.00604236       0.05123677       0.02365415      -0.00384257
H        0.64566480      -1.89989779       1.25115769      -0.07609657       0.00356136       0.02484544      -0.04594195       0.00991068       0.02417626
N        0.61642372       1.97869168      -1.22260891       0.00543984       0.03611065       0.01970909      -0.00044799      -0.00328952       0.00008109
O        0.44844351       3.19091210      -1.06150989       0.02396968      -0.02306756      -0.01875198       0.01311556      -0.00089101       0.00054768
O        0.40326926       1.39187833      -2.28369758      -0.01091969      -0.02049210      -0.02298477      -0.00618221      -0.00154430      -0.00034868
14
Properties=species:S:1:pos:R:3:mp2_forces:R:3:forces:R:3 R1=H R2=CH3 R3=H R4=NO2 lg=F nu=F rxn-id=497 mp2_energy=-14197.073549695358 energy=-14197.029536641252 free_energy=-14197.073557404696 pbc="F F F"
C        0.47728711      -0.12182702       0.05214892      -0.00866997      -0.00154287       0.00089394      -0.01820550      -0.00482162      -0.00253956
C        1.16014104       1.20818182      -0.08780680      -0.01260009       0.00008522       0.00227355      -0.00963534      -0.01074788      -0.00244687
H        2.22461597       0.87532632      -0.30738239      -0.00266001       0.01182721       0.01855149      -0.00184651      -0.02405174       0.00395503
F       -0.92472012       0.04609739       0.15081164      -0.01230159      -0.01479983       0.00496226      -0.01907607      -0.01351963      -0.00031183
F        3.20667561      -0.39509144      -0.45136861       0.03803428       0.06176915       0.04130049       0.07001151       0.07878352       0.04585350
H        0.68315977      -0.68597817      -0.85383095      -0.00322723      -0.00152115      -0.00211807      -0.02573276      -0.00689232      -0.00486655
H        1.05350781       1.84250067       0.79291980      -0.02633343       0.00390079       0.00153793       0.00649410      -0.01234931      -0.00073261
C        0.99083800      -0.85745606       1.26647937       0.00164695      -0.01428288      -0.00839192      -0.00508681      -0.00473976      -0.00899177
H        2.08020447      -0.81843380       1.19197907       0.00618245      -0.07224279      -0.06786980      -0.00213306      -0.03730595      -0.06065152
H        0.60397990      -0.39331055       2.17979753       0.07753538       0.03069480       0.00604236       0.05461957       0.03184133       0.00290052
H        0.66983220      -1.90086399       1.24237608      -0.07609657       0.00356136       0.02484544      -0.05694823       0.00719634       0.02478622
N        0.61445774       1.98192833      -1.22076322       0.00543984       0.03611065       0.01970909       0.00001597      -0.00280957       0.00112185
O        0.41862333       3.18879475      -1.05234860       0.02396968      -0.02306756      -0.01875198       0.01421299       0.00075065       0.00082003
O        0.41974553       1.39730630      -2.28645035      -0.01091969      -0.02049210      -0.02298477      -0.00668985      -0.00133405       0.00110357
14
Properties=species:S:1:pos:R:3:mp2_forces:R:3:forces:R:3 R1=H R2=CH3 R3=H R4=NO2 lg=F nu=F rxn-id=497 mp2_energy=-14197.073549695358 energy=-14196.978744138749 free_energy=-14197.073557404696 pbc="F F F"
C        0.49410248      -0.10225957       0.06396913      -0.00866997      -0.00154287       0.00089394      -0.02646733      -0.01123589      -0.00393522
C        1.18054977       1.22548711      -0.08608718      -0.01260009       0.00008522       0.00227355      -0.01642526      -0.01552412      -0.00226158
H        2.23093444       0.89114979      -0.32027037      -0.00266001       0.01182721       0.01855149      -0.01021278      -0.05173973       0.00160212
F       -0.90607042       0.08181066       0.16970099      -0.01230159      -0.01479983       0.00496226      -0.02839461      -0.02680493      -0.01328802
F        3.12550441      -0.49848643      -0.49601917       0.03803428       0.06176915       0.04130049       0.09042131       0.10784337       0.04574135
H        0.69601302      -0.66170689      -0.84380882      -0.00322723      -0.00152115      -0.00211807      -0.02365503      -0.01439705      -0.00175136
H        1.07943252       1.86975982       0.78867982      -0.02633343       0.00390079       0.00153793       0.00878513      -0.01762745       0.00264421
C        0.99491695      -0.85245901       1.27622338       0.00164695      -0.01428288      -0.00839192      -0.00821590      -0.00031416      -0.00850380
H        2.07897360      -0.74716096       1.28144695       0.00618245      -0.07224279      -0.06786980       0.00249428      -0.04109875      -0.08289338
H        0.50933718      -0.46950150       2.17915587       0.07753538       0.03069480       0.00604236       0.06720003       0.05342412       0.01252625
H        0.76712972      -1.91627561       1.17835648      -0.07609657       0.00356136       0.02484544      -0.07496911       0.00710135       0.03839372
N        0.61395004       1.98148252      -1.22487045       0.00543984       0.03611065       0.01970909       0.00130037      -0.00184163       0.00372444
O        0.37345197       3.18070629      -1.06250290       0.02396968      -0.02306756      -0.01875198       0.02275404       0.00263315       0.00957246
O        0.44012270       1.38462834      -2.28741222      -0.01091969      -0.02049210      -0.02298477      -0.00461515       0.00958173      -0.00157118
14
Properties=species:S:1:pos:R:3:mp2_forces:R:3:forces:R:3 R1=H R2=CH3 R3=H R4=NO2 lg=F nu=F rxn-id=497 mp2_energy=-14197.073549695358 energy=-14196.937722505574 free_energy=-14197.073557404696 pbc="F F F"
C        0.51253004      -0.09658000       0.06697352      -0.00866997      -0.00154287       0.00089394      -0.03796494      -0.00719580       0.00060745
C        1.19080151       1.23637425      -0.08284696      -0.01260009       0.00008522       0.00227355      -0.02033766      -0.01637934       0.00033608
H        2.23805213       0.92754693      -0.31750832      -0.00266001       0.01182721       0.01855149      -0.02374500      -0.09917211      -0.00980226
F       -0.88660171       0.10158233       0.17413072      -0.01230159      -0.01479983       0.00496226      -0.04168059      -0.04660063      -0.01673345
F        3.05980066      -0.56643364      -0.54102594       0.03803428       0.06176915       0.04130049       0.10897697       0.12170961       0.04929343
H        0.71185872      -0.65556901      -0.84041149      -0.00322723      -0.00152115      -0.00211807      -0.00895694      -0.00410212       0.00530160
H        1.07073676       1.88236616       0.78853493      -0.02633343       0.00390079       0.00153793       0.02443292      -0.01282568       0.00669875
C        1.00050397      -0.85268278       1.28266147       0.00164695      -0.01428288      -0.00839192      -0.01458017       0.00677604      -0.00536081
H        2.07767479      -0.71769398       1.34776850       0.00618245      -0.07224279      -0.06786980      -0.00051067      -0.02781653      -0.10842273
H        0.46209461      -0.50889763       2.17090087       0.07753538       0.03069480       0.00604236       0.06286338       0.05778596       0.02477672
H        0.82014796      -1.92239075       1.15247226      -0.07609657       0.00356136       0.02484544      -0.07352522       0.01049962       0.03521785
N        0.61450586       1.98248110      -1.22802394       0.00543984       0.03611065       0.01970909       0.00217499      -0.00168549       0.00817170
O        0.36530041       3.18055455      -1.07207430       0.02396968      -0.02306756      -0.01875198       0.02383413       0.00333901       0.01134834
O        0.44094266       1.37651704      -2.28498984      -0.01091969      -0.02049210      -0.02298477      -0.00098121       0.01566745      -0.00143266
14
Properties=species:S:1:pos:R:3:mp2_forces:R:3:forces:R:3 R1=H R2=CH3 R3=H R4=NO2 lg=F nu=F rxn-id=497 mp2_energy=-14197.073549695358 energy=-14196.890799610333 free_energy=-14197.073557404696 pbc="F F F"
C        0.53684724      -0.09649836       0.06420035      -0.00866997      -0.00154287       0.00089394      -0.05534771       0.00151186       0.01035244
C        1.20128763       1.24485359      -0.08226989      -0.01260009       0.00008522       0.00227355      -0.02828866      -0.01483474       0.00572276
H        2.25069176       0.98551784      -0.31316060      -0.00266001       0.01182721       0.01855149      -0.04444011      -0.16179536      -0.01472980
F       -0.86099353       0.12011189       0.18269531      -0.01230159      -0.01479983       0.00496226      -0.06266213      -0.06301455      -0.03680658
F        2.99510115      -0.64014183      -0.57657501       0.03803428       0.06176915       0.04130049       0.13094569       0.12715744       0.04399228
H        0.72480592      -0.65475127      -0.84465156      -0.00322723      -0.00152115      -0.00211807       0.01301075       0.00420354       0.02058141
H        1.05061290       1.88493242       0.78912862      -0.02633343       0.00390079       0.00153793       0.04711674       0.00674438       0.00638095
C        1.00901125      -0.85493738       1.28638162       0.00164695      -0.01428288      -0.00839192      -0.02374039       0.01717997      -0.00198022
H        2.07810664      -0.70479677       1.40939473       0.00618245      -0.07224279      -0.06786980      -0.00169034      -0.00538719      -0.13401557
H        0.42726845      -0.52845634       2.15390050       0.07753538       0.03069480       0.00604236       0.06162342       0.04373948       0.04784788
H        0.85748967      -1.92707146       1.14087066      -0.07609657       0.00356136       0.02484544      -0.06641880       0.01835724       0.02337450
N        0.61327099       1.98382763      -1.23129072       0.00543984       0.03611065       0.01970909       0.00292225       0.00337087       0.01163940
O        0.35270892       3.17921397      -1.07525449       0.02396968      -0.02306756      -0.01875198       0.02268926       0.00864196       0.01225031
O        0.44213937       1.37537064      -2.28680802      -0.01091969      -0.02049210      -0.02298477       0.00428003       0.01412512       0.00539023
14
Properties=species:S:1:pos:R:3:mp2_forces:R:3:forces:R:3 R1=H R2=CH3 R3=H R4=NO2 lg=F nu=F rxn-id=497 mp2_energy=-14197.073549695358 energy=-14196.824833394345 free_energy=-14197.073557404696 pbc="F F F"
C        0.56716575      -0.09840550       0.05885095      -0.00866997      -0.00154287       0.00089394      -0.08967900       0.01803500       0.02625324
C        1.21615826       1.25210446      -0.08514777      -0.01260009       0.00008522       0.00227355      -0.04394158      -0.00684330       0.01608784
H        2.27358450       1.06933118      -0.30663922      -0.00266001       0.01182721       0.01855149      -0.06921855      -0.24419401      -0.01721859
F       -0.82777751       0.15326304       0.20187796      -0.01230159      -0.01479983       0.00496226      -0.09447962      -0.08313385      -0.05534173
F        2.92588467      -0.70600112      -0.59684809       0.03803428       0.06176915       0.04130049       0.18103236       0.09916238       0.01983193
H        0.71992769      -0.65794033      -0.85500485      -0.00322723      -0.00152115      -0.00211807       0.05907422       0.02178054       0.04194643
H        1.02653394       1.88155142       0.78650151      -0.02633343       0.00390079       0.00153793       0.06250149       0.04004212       0.00925396
C        1.02041968      -0.86267817       1.28665234       0.00164695      -0.01428288      -0.00839192      -0.03611805       0.02888947       0.00343240
H        2.07859083      -0.70340498       1.47476228       0.00618245      -0.07224279      -0.06786980      -0.00307098       0.02627789      -0.16028241
H        0.39516826      -0.54788076       2.12872033       0.07753538       0.03069480       0.00604236       0.06014066       0.01895347       0.08020864
H        0.89139355      -1.93580398       1.12932830      -0.07609657       0.00356136       0.02484544      -0.05657205       0.02980265       0.00427945
N        0.61168701       1.98068039      -1.23683878       0.00543984       0.03611065       0.01970909       0.00189019       0.01492146       0.01347158
O        0.33913621       3.17269576      -1.07915832       0.02396968      -0.02306756      -0.01875198       0.01929068       0.02104711       0.00652274
O        0.44047554       1.36966316      -2.29049513      -0.01091969      -0.02049210      -0.02298477       0.00915022       0.01525908       0.01155453
14
Properties=species:S:1:pos:R:3:mp2_forces:R:3:forces:R:3 R1=H R2=CH3 R3=H R4=NO2 lg=F nu=F rxn-id=497 mp2_energy=-14197.073549695358 energy=-14196.702663918657 free_energy=-14197.073557404696 pbc="F F F"
C        0.61277515      -0.10858367       0.04554929      -0.00866997      -0.00154287       0.00089394      -0.20020826       0.06092862       0.06209896
C        1.23937524       1.25556150      -0.09437961      -0.01260009       0.00008522       0.00227355      -0.07289091       0.00237929       0.03210970
H        2.30922361       1.19608549      -0.29855661      -0.00266001       0.01182721       0.01855149      -0.08629732      -0.34286734      -0.01560420
F       -0.77854897       0.19784299       0.22734624      -0.01230159      -0.01479983       0.00496226      -0.14856267      -0.09838981      -0.05207809
F        2.83203789      -0.75724106      -0.60617816       0.03803428       0.06176915       0.04130049       0.31602876       0.01302083      -0.04127979
H        0.68877592      -0.67126031      -0.87721664      -0.00322723      -0.00152115      -0.00211807       0.15954059       0.04808077       0.07863038
H        0.99582007       1.86138920       0.78087754      -0.02633343       0.00390079       0.00153793       0.07130515       0.09452380       0.01239496
C        1.03898750      -0.87700834       1.28468056       0.00164695      -0.01428288      -0.00839192      -0.06338209       0.04439036       0.00576225
H        2.08051583      -0.71658582       1.55745264       0.00618245      -0.07224279      -0.06786980      -0.01217052       0.06484539      -0.20107431
H        0.36468399      -0.55845465       2.08825101       0.07753538       0.03069480       0.00604236       0.05325760      -0.02148903       0.13511290
H        0.92020947      -1.95074417       1.12820440      -0.07609657       0.00356136       0.02484544      -0.03811160       0.04470281      -0.03019421
N        0.61017885       1.97310863      -1.24357219       0.00543984       0.03611065       0.01970909       0.00389117       0.03101544       0.01013015
O        0.32761100       3.16119464      -1.07981866       0.02396968      -0.02306756      -0.01875198       0.01093075       0.03713429      -0.00707974
O        0.43670282       1.36187012      -2.29607832      -0.01091969      -0.02049210      -0.02298477       0.00666935       0.02172459       0.01107105
14
Properties=species:S:1:pos:R:3:mp2_forces:R:3:forces:R:3 R1=H R2=CH3 R3=H R4=NO2 lg=F nu=F rxn-id=497 mp2_energy=-14197.073549695358 energy=-14196.558184382653 free_energy=-14197.073557404696 pbc="F F F"
C        0.66491588      -0.12471428       0.02837682      -0.00866997      -0.00154287       0.00089394      -0.54825101       0.15495576       0.14586972
C        1.25964287       1.25505007      -0.10308764      -0.01260009       0.00008522       0.00227355      -0.08926674      -0.00034166       0.02862659
H        2.33262292       1.28757307      -0.29495483      -0.00266001       0.01182721       0.01855149      -0.06537546      -0.35007453      -0.00810407
F       -0.73713632       0.22422323       0.24216493      -0.01230159      -0.01479983       0.00496226      -0.11478191      -0.10161880      -0.02643746
F        2.74728880      -0.76057391      -0.59444254       0.03803428       0.06176915       0.04130049       0.55034843      -0.10362989      -0.12771835
H        0.64643826      -0.68358177      -0.89856598      -0.00322723      -0.00152115      -0.00211807       0.25599445       0.03090201       0.06858411
H        0.97720008       1.83520484       0.77781667      -0.02633343       0.00390079       0.00153793       0.07456469       0.13404483       0.01136313
C        1.05651133      -0.88899632       1.28311192       0.00164695      -0.01428288      -0.00839192      -0.08282041       0.04712461      -0.01715816
H        2.08367521      -0.73428202       1.61206884       0.00618245      -0.07224279      -0.06786980      -0.01609805       0.07557942      -0.20368094
H        0.35006961      -0.55164727       2.05102481       0.07753538       0.03069480       0.00604236       0.04623984      -0.05463376       0.18665232
H        0.92979144      -1.96273691       1.13598926      -0.07609657       0.00356136       0.02484544      -0.02124256       0.04609708      -0.04290585
N        0.60885462       1.96482090      -1.24607407       0.00543984       0.03611065       0.01970909       0.01503322       0.04882348      -0.00402834
O        0.32326885       3.15090689      -1.07778502       0.02396968      -0.02306756      -0.01875198      -0.00031034       0.04614220      -0.01316264
O        0.43520480       1.35592802      -2.29908166      -0.01091969      -0.02049210      -0.02298477      -0.00403417       0.02662926       0.00209993
14
Properties=species:S:1:pos:R:3:mp2_forces:R:3:forces:R:3 R1=H R2=CH3 R3=H R4=NO2 lg=F nu=F rxn-id=497 mp2_energy=-14197.073549695358 energy=-14196.148116909204 free_energy=-14197.073557404696 pbc="F F F"
C        0.79834943      -0.16048976      -0.00575208      -0.00866997      -0.00154287       0.00089394      -3.11159511       0.85232919       0.63925095
C        1.28121841       1.25442352      -0.11039973      -0.01260009       0.00008522       0.00227355      -0.07989357      -0.01652725       0.01201678
H        2.34870440       1.37242005      -0.29337674      -0.00266001       0.01182721       0.01855149      -0.02652420      -0.19522799       0.00487467
F       -0.70939998       0.24891824       0.24829108      -0.01230159      -0.01479983       0.00496226       2.28067399      -0.74024971      -0.44333206
F        2.61442622      -0.73581804      -0.56350470       0.03803428       0.06176915       0.04130049       0.66841913      -0.18589230      -0.18048292
H        0.58451560      -0.69155037      -0.91600230      -0.00322723      -0.00152115      -0.00211807       0.17307490       0.01138056       0.03884773
H        0.95971143       1.80233724       0.77501862      -0.02633343       0.00390079       0.00153793       0.08525933       0.11276979       0.01473036
C        1.07625419      -0.90073974       1.28699014       0.00164695      -0.01428288      -0.00839192      -0.05354836       0.03642814      -0.06278018
H        2.08729672      -0.75275076       1.66172951       0.00618245      -0.07224279      -0.06786980      -0.03269671       0.03963730      -0.11971094
H        0.33884988      -0.53786945       2.00532851       0.07753538       0.03069480       0.00604236       0.06386998      -0.06455528       0.18360285
H        0.93472322      -1.97364826       1.14664600      -0.07609657       0.00356136       0.02484544       0.00508154       0.03673178      -0.02574950
N        0.60521247       1.95277680      -1.24472324       0.00543984       0.03611065       0.01970909       0.03912065       0.05780469      -0.02795180
O        0.32220926       3.13961547      -1.07407491       0.02396968      -0.02306756      -0.01875198      -0.00986194       0.03216612      -0.01274259
O        0.43627713       1.34954963      -2.29960867      -0.01091969      -0.02049210      -0.02298477      -0.00137963       0.02320498      -0.02057335
14
Properties=species:S:1:pos:R:3:mp2_forces:R:3:forces:R:3 R1=H R2=CH3 R3=H R4=NO2 lg=F nu=F rxn-id=497 mp2_energy=-14197.073549695358 energy=-14195.884450367335 free_energy=-14197.073557404696 pbc="F F F"
C        0.91762894      -0.19464212      -0.03135071      -0.00866997      -0.00154287       0.00089394      -0.10412739       0.03032413       0.02538626
C        1.28454247       1.25553412      -0.11064885      -0.01260009       0.00008522       0.00227355      -0.00001594       0.00025234      -0.00018045
H        2.34980206       1.37988646      -0.29364002      -0.00266001       0.01182721       0.01855149       0.00044517      -0.00806490      -0.00224213
F       -0.79698432       0.27762549       0.26542590      -0.01230159      -0.01479983       0.00496226       0.04852788      -0.01481880      -0.00943843
F        2.58877328      -0.72866328      -0.55650041       0.03803428       0.06176915       0.04130049       0.05324973      -0.01514611      -0.01351487
H        0.57801813      -0.69162993      -0.91707219      -0.00322723      -0.00152115      -0.00211807       0.00612788      -0.00115198      -0.00166009
H        0.95645983       1.79809472       0.77451668      -0.02633343       0.00390079       0.00153793       0.00381776       0.00282466       0.00051864
C        1.07845001      -0.90181224       1.28955969       0.00164695      -0.01428288      -0.00839192      -0.00240048       0.00128573       0.00030503
H        2.08859840      -0.75426065       1.66639509       0.00618245      -0.07224279      -0.06786980      -0.00135074       0.00093571      -0.00477711
H        0.33626141      -0.53532789       1.99836311       0.07753538       0.03069480       0.00604236       0.00048194      -0.00034541       0.00489837
H        0.93441968      -1.97518503       1.14754931      -0.07609657       0.00356136       0.02484544      -0.00092245       0.00120941      -0.00064361
N        0.60353464       1.95067796      -1.24378125       0.00543984       0.03611065       0.01970909       0.00015891       0.00146219       0.00000843
O        0.32246078       3.13818143      -1.07349362       0.02396968      -0.02306756      -0.01875198      -0.00459173      -0.00004284       0.00195100
O        0.43638305       1.34869553      -2.29876124      -0.01091969      -0.02049210      -0.02298477       0.00059945       0.00127588      -0.00061103
14
Properties=species:S:1:pos:R:3:mp2_forces:R:3:forces:R:3 R1=H R2=CH3 R3=H R4=NO2 lg=F nu=F rxn-id=497 mp2_energy=-14197.073549695358 energy=-14196.134667541124 free_energy=-14197.073557404696 pbc="F F F"
C        1.04881849      -0.23490713      -0.06823778      -0.00866997      -0.00154287       0.00089394       3.00547341      -0.91032148      -0.84791424
C        1.28418436       1.25337294      -0.11117422      -0.01260009       0.00008522       0.00227355      -0.00893572      -0.04079367      -0.00686093
H        2.34991346       1.39141881      -0.29228518      -0.00266001       0.01182721       0.01855149       0.00176120       0.26132156       0.02793223
F       -0.82216634       0.28764545       0.26919626      -0.01230159      -0.01479983       0.00496226      -0.57370272       0.22975354       0.08495251
F        2.49106557      -0.70177861      -0.53033990       0.03803428       0.06176915       0.04130049      -2.23415223       0.61245293       0.59952589
H        0.57097429      -0.68853614      -0.91241840      -0.00322723      -0.00152115      -0.00211807      -0.16324346       0.06798367       0.10490426
H        0.95530671       1.79384760       0.77439840      -0.02633343       0.00390079       0.00153793      -0.02362833      -0.10278726      -0.00658511