16
Properties=species:S:1:pos:R:3:mp2_forces:R:3:forces:R:3 R1=CN R2=CH3 R3=H R4=CH3 lg=Cl nu=Cl rxn-id=1495 mp2_energy=-31808.036779541617 energy=-31808.036777263427 free_energy=-31808.036777263427 pbc="F F F"
C        0.38940715      -0.06516862       0.06429882      -0.01137202      -0.00341267      -0.00842053      -0.01139781      -0.00340572      -0.00840849
C        0.84332656       1.38960256      -0.04578385       0.00248311      -0.01289515      -0.01069409       0.00249066      -0.01290127      -0.01068759
H        1.93286511       1.36353153       0.04831994       0.00024744       0.00281353      -0.01652217       0.00023910       0.00281857      -0.01652365
Cl      -1.42091346      -0.08492734       0.36086585      -0.01775939       0.00512232       0.00258680      -0.01773552       0.00511964       0.00258266
Cl       3.91922077      -0.01090721      -0.72774383       0.05709683       0.05265589       0.06260786       0.05709595       0.05265529       0.06260808
H        0.41820909       1.91725465       0.81554154       0.02385352      -0.00958281      -0.01060770       0.02385388      -0.00958844      -0.01061630
C        0.56800906      -0.80093058      -1.19082715      -0.01756340       0.00981752       0.02419551      -0.01760597       0.00986395       0.02428701
N        0.60155421      -1.40361409      -2.19848744      -0.01188290      -0.01546392      -0.00991032      -0.01183748      -0.01550274      -0.01000345
C        1.06540964      -0.77415800       1.22595575      -0.00501528      -0.00347899      -0.01606419      -0.00501173      -0.00347245      -0.01606836
H        2.14196626      -0.74455049       1.03603931      -0.00465366      -0.03453901      -0.00749457      -0.00465326      -0.03453883      -0.00749290
H        0.82539438      -0.24631317       2.15277499       0.03000712       0.00337687      -0.01548409       0.03000571       0.00337646      -0.01548667
H        0.72564068      -1.80845152       1.30578519      -0.01609895       0.00554455       0.00146704      -0.01610132       0.00553755       0.00146793
C        0.47217701       2.06302484      -1.35971563      -0.00472229      -0.00226367       0.00522875      -0.00472114      -0.00226622       0.00523929
H        1.12383718       1.69015100      -2.15209058      -0.03758737      -0.00895303      -0.01369288      -0.03758073      -0.00895663      -0.01369947
H       -0.56882797       1.87878536      -1.63883419      -0.00861882       0.01699904       0.02265781      -0.00862640       0.01699803       0.02265454
H        0.61711203       3.14403351      -1.28407211       0.02158606      -0.00574046      -0.00985325       0.02158607      -0.00573720      -0.00985264
16
Properties=species:S:1:pos:R:3:mp2_forces:R:3:forces:R:3 R1=CN R2=CH3 R3=H R4=CH3 lg=Cl nu=Cl rxn-id=1495 mp2_energy=-31808.036779541617 energy=-31808.15109363306 free_energy=-31808.036777263427 pbc="F F F"
C        0.35133064      -0.10538346      -0.00220099      -0.01137202      -0.00341267      -0.00842053       0.00097304       0.00133461      -0.00015428
C        0.94671354       1.28334363      -0.19934897       0.00248311      -0.01289515      -0.01069409      -0.00096597       0.00214910      -0.00166573
H        2.03100020       1.13400928      -0.31219726       0.00024744       0.00281353      -0.01652217      -0.00093569       0.00333018      -0.00152260
Cl      -1.43021535       0.04620932       0.39770280      -0.01775939       0.00512232       0.00258680       0.00180215      -0.00032695       0.00498238
Cl       4.33252975       0.68102246       0.17766101       0.05709683       0.05265589       0.06260786       0.00140325      -0.01977638       0.02092478
H        0.80584868       1.82164726       0.74352010       0.02385352      -0.00958281      -0.01060770      -0.00177644       0.00261321      -0.00207488
C        0.41361355      -0.89907083      -1.23213782      -0.01756340       0.00981752       0.02419551      -0.00230761       0.00169561      -0.00070544
N        0.44530066      -1.55030995      -2.20978701      -0.01188290      -0.01546392      -0.00991032      -0.00592878       0.00230533      -0.00103240
C        1.03387192      -0.83610636       1.14525983      -0.00501528      -0.00347899      -0.01606419       0.00475668       0.00185502      -0.00214371
H        2.10916818      -0.86254690       0.93937976      -0.00465366      -0.03453901      -0.00749457       0.00448947       0.00465385      -0.00363524
H        0.86996662      -0.27660671       2.06903221       0.03000712       0.00337687      -0.01548409       0.00497562       0.00078195      -0.00135638
H        0.63539833      -1.84536259       1.26215063      -0.01609895       0.00554455       0.00146704       0.00720795       0.00088897      -0.00242988
C        0.37889868       2.07353784      -1.36956189      -0.00472229      -0.00226367       0.00522875      -0.00286146       0.00002573      -0.00220211
H        0.53709373       1.54868667      -2.31242960      -0.03758737      -0.00895303      -0.01369288       0.00076590       0.00102733      -0.00219388
H       -0.69074978       2.25337954      -1.24808290      -0.00861882       0.01699904       0.02265781      -0.00400108      -0.00514748      -0.00359375
H        0.88461834       3.04091322      -1.43693328       0.02158606      -0.00574046      -0.00985325      -0.00759702       0.00258990      -0.00119688
16
Properties=species:S:1:pos:R:3:mp2_forces:R:3:forces:R:3 R1=CN R2=CH3 R3=H R4=CH3 lg=Cl nu=Cl rxn-id=1495 mp2_energy=-31808.036779541617 energy=-31808.147620005475 free_energy=-31808.036777263427 pbc="F F F"
C        0.34777715      -0.10985018      -0.00260632      -0.01137202      -0.00341267      -0.00842053       0.00102857       0.00152442      -0.00006874
C        0.95288562       1.27409754      -0.19917492       0.00248311      -0.01289515      -0.01069409      -0.00140930       0.00254409      -0.00170728
H        2.03619184       1.11842566      -0.31574884       0.00024744       0.00281353      -0.01652217      -0.00135623       0.00410579      -0.00140888
Cl      -1.43328641       0.05398355       0.39309492      -0.01775939       0.00512232       0.00258680       0.00192497      -0.00071467       0.00545306
Cl       4.32953658       0.76610101       0.15732150       0.05709683       0.05265589       0.06260786       0.00308159      -0.02422705       0.02210246
H        0.82080365       1.81219863       0.74524755       0.02385352      -0.00958281      -0.01060770      -0.00274236       0.00310204      -0.00229980
C        0.40833302      -0.90518103      -1.23141063      -0.01756340       0.00981752       0.02419551      -0.00229533       0.00212430      -0.00064643
N        0.43931641      -1.55844245      -2.20772567      -0.01188290      -0.01546392      -0.00991032      -0.00608924       0.00303602      -0.00135340
C        1.02314487      -0.84452266       1.14678751      -0.00501528      -0.00347899      -0.01606419       0.00524516       0.00237205      -0.00214114
H        2.09900371      -0.87603908       0.94372658      -0.00465366      -0.03453901      -0.00749457       0.00498628       0.00534404      -0.00378798
H        0.85940922      -0.28508923       2.07038027       0.03000712       0.00337687      -0.01548409       0.00550344       0.00145417      -0.00142728
H        0.61990070      -1.85219742       1.26199257      -0.01609895       0.00554455       0.00146704       0.00797595       0.00132500      -0.00217466
C        0.38816551       2.07152350      -1.36592791      -0.00472229      -0.00226367       0.00522875      -0.00335458      -0.00002386      -0.00250648
H        0.52679064       1.54129926      -2.30887947      -0.03758737      -0.00895303      -0.01369288       0.00190931       0.00172871      -0.00251275
H       -0.67626848       2.27265164      -1.23407941      -0.00861882       0.01699904       0.02265781      -0.00475738      -0.00693149      -0.00487462
H        0.91268368       3.02840369      -1.44097113       0.02158606      -0.00574046      -0.00985325      -0.00965086       0.00323645      -0.00064609
16
Properties=species:S:1:pos:R:3:mp2_forces:R:3:forces:R:3 R1=CN R2=CH3 R3=H R4=CH3 lg=Cl nu=Cl rxn-id=1495 mp2_energy=-31808.036779541617 energy=-31808.158863722576 free_energy=-31808.036777263427 pbc="F F F"
C        0.36972379      -0.08217800      -0.00188678      -0.01137202      -0.00341267      -0.00842053      -0.00032908      -0.00038252      -0.00020448
C        0.91759816       1.32789519      -0.20746765       0.00248311      -0.01289515      -0.01069409       0.00116176      -0.00116760      -0.00082595
H        2.00537881       1.21063302      -0.30840418       0.00024744       0.00281353      -0.01652217       0.00094329      -0.00230597      -0.00187119
Cl      -1.40827309       0.01428756       0.43405778      -0.01775939       0.00512232       0.00258680       0.00010100       0.00157348       0.00099110
Cl       4.35277957       0.26441318       0.35458810       0.05709683       0.05265589       0.06260786       0.00013769       0.01097655       0.00617504
H        0.74031681       1.86940417       0.72659998       0.02385352      -0.00958281      -0.01060770       0.00306993      -0.00116254      -0.00044420
C        0.42914796      -0.86654836      -1.23837917      -0.01756340       0.00981752       0.02419551      -0.00224075      -0.00147400      -0.00159628
N        0.45479033      -1.50521124      -2.22453719      -0.01188290      -0.01546392      -0.00991032      -0.00408320      -0.00018667       0.00066948
C        1.09434116      -0.79499291       1.12916620      -0.00501528      -0.00347899      -0.01606419      -0.00025617      -0.00126454      -0.00087161
H        2.16563459      -0.80638752       0.90050970      -0.00465366      -0.03453901      -0.00749457      -0.00028193      -0.00098083      -0.00083958
H        0.94527510      -0.23038361       2.05370926       0.03000712       0.00337687      -0.01548409      -0.00012123      -0.00174194      -0.00057619
H        0.71343761      -1.80852887       1.26132282      -0.01609895       0.00554455       0.00146704      -0.00028114      -0.00131704      -0.00141457
C        0.32762736       2.08030832      -1.39199778      -0.00472229      -0.00226367       0.00522875       0.00063878      -0.00029054       0.00003804
H        0.56774280       1.58427031      -2.33279530      -0.03758737      -0.00895303      -0.01369288      -0.00319519      -0.00177285      -0.00020065
H       -0.75953538       2.15771136      -1.31173194      -0.00861882       0.01699904       0.02265781       0.00106116       0.00306479       0.00270990
H        0.73840211       3.09266984      -1.43072724       0.02158606      -0.00574046      -0.00985325       0.00367507      -0.00156778      -0.00173887
16
Properties=species:S:1:pos:R:3:mp2_forces:R:3:forces:R:3 R1=CN R2=CH3 R3=H R4=CH3 lg=Cl nu=Cl rxn-id=1495 mp2_energy=-31808.036779541617 energy=-31808.156198531524 free_energy=-31808.036777263427 pbc="F F F"
C        0.37907248      -0.08195073      -0.01362811      -0.01137202      -0.00341267      -0.00842053      -0.00127701      -0.00020073       0.00125680
C        0.91709673       1.33213876      -0.22090266       0.00248311      -0.01289515      -0.01069409       0.00134334      -0.00149730       0.00056474
H        2.00246772       1.21656105      -0.34588751       0.00024744       0.00281353      -0.01652217       0.00131166      -0.00287501       0.00195355
Cl      -1.40450364      -0.00351510       0.39994257      -0.01775939       0.00512232       0.00258680      -0.00002298       0.00436060       0.00564170
Cl       4.37563461       0.16550291       0.40418350       0.05709683       0.05265589       0.06260786      -0.00288356       0.02066984       0.00159985
H        0.75941020       1.86772206       0.71950216       0.02385352      -0.00958281      -0.01060770       0.00121589      -0.00077398       0.00015885
C        0.46376667      -0.87214961      -1.24497266      -0.01756340       0.00981752       0.02419551      -0.00595617      -0.00068877      -0.00119562
N        0.51374226      -1.51494026      -2.22753621      -0.01188290      -0.01546392      -0.00991032      -0.01014333       0.00180556       0.00086420
C        1.09640018      -0.78064058       1.13088789      -0.00501528      -0.00347899      -0.01606419      -0.00032546      -0.00290129      -0.00111520
H        2.17106331      -0.78629793       0.91593261      -0.00465366      -0.03453901      -0.00749457      -0.00063275      -0.00253409      -0.00220447
H        0.93044761      -0.21076637       2.04940873       0.03000712       0.00337687      -0.01548409       0.00098675      -0.00458290       0.00010409
H        0.72200422      -1.79610447       1.26566734      -0.01609895       0.00554455       0.00146704      -0.00053865      -0.00302126      -0.00270367
C        0.29777950       2.09274319      -1.38484207      -0.00472229      -0.00226367       0.00522875       0.00369010      -0.00182758      -0.00088025
H        0.46837437       1.57908372      -2.33114053      -0.03758737      -0.00895303      -0.01369288       0.00726399      -0.00149856      -0.00045327
H       -0.78031856       2.21117401      -1.24863924      -0.00861882       0.01699904       0.02265781       0.00314877      -0.00312114      -0.00413836
H        0.74195002       3.08880181      -1.45594920       0.02158606      -0.00574046      -0.00985325       0.00281941      -0.00131341       0.00054707
16
Properties=species:S:1:pos:R:3:mp2_forces:R:3:forces:R:3 R1=CN R2=CH3 R3=H R4=CH3 lg=Cl nu=Cl rxn-id=1495 mp2_energy=-31808.036779541617 energy=-31808.130751605207 free_energy=-31808.036777263427 pbc="F F F"
C        0.36200068      -0.07667109      -0.00791020      -0.01137202      -0.00341267      -0.00842053       0.01336147       0.01212192       0.01687715
C        0.97292515       1.29714126      -0.27101145       0.00248311      -0.01289515      -0.01069409       0.00218007       0.01369791       0.01279921
H        2.03912301       1.13157716      -0.45916045       0.00024744       0.00281353      -0.01652217       0.00263344       0.00957436       0.01373347
Cl      -1.36176521       0.18223815       0.58983819      -0.01775939       0.00512232       0.00258680       0.01450808      -0.14953419      -0.14372113
Cl       4.31306910       0.49482818       0.75081919       0.05709683       0.05265589       0.06260786      -0.00406564      -0.00135578      -0.02088811
H        0.91134860       1.84889355       0.67049494       0.02385352      -0.00958281      -0.01060770       0.00481261       0.02123765       0.00961904
C        0.34582120      -0.86010051      -1.24448861      -0.01756340       0.00981752       0.02419551      -0.03836644       0.00587063       0.01572073
N        0.38973418      -1.49252977      -2.23577720      -0.01188290      -0.01546392      -0.00991032      -0.08265992       0.00523975       0.02436630
C        1.10299655      -0.84229298       1.07805815      -0.00501528      -0.00347899      -0.01606419       0.00987896       0.01153503       0.01440793
H        2.17483427      -0.81706623       0.86119583      -0.00465366      -0.03453901      -0.00749457       0.00729557      -0.00927793      -0.00279396
H        0.93991454      -0.34041540       2.03387430       0.03000712       0.00337687      -0.01548409       0.03395316       0.02219541       0.01680056
H        0.74126146      -1.87081389       1.14368611      -0.01609895       0.00554455       0.00146704      -0.01245637       0.01793586       0.02982025
C        0.30609195       2.06249649      -1.40844930      -0.00472229      -0.00226367       0.00522875       0.01026128       0.01103763       0.00517906
H        0.43651490       1.55167726      -2.36364897      -0.03758737      -0.00895303      -0.01369288       0.01170038       0.00193858       0.01131829
H       -0.76599261       2.18071287      -1.22970983      -0.00861882       0.01699904       0.02265781       0.01031453       0.01933788      -0.00246118
H        0.74650992       3.05768738      -1.49578408       0.02158606      -0.00574046      -0.00985325       0.01664879       0.00844529      -0.00077763
16
Properties=species:S:1:pos:R:3:mp2_forces:R:3:forces:R:3 R1=CN R2=CH3 R3=H R4=CH3 lg=Cl nu=Cl rxn-id=1495 mp2_energy=-31808.036779541617 energy=-31807.66122419424 free_energy=-31808.036777263427 pbc="F F F"
C        0.32498384      -0.10704729      -0.04892341      -0.01137202      -0.00341267      -0.00842053      -0.08023660       0.08030901       0.10832843
C        0.96932934       1.26014883      -0.30218209       0.00248311      -0.01289515      -0.01069409       0.00836789       0.04117936       0.02309933
H        2.03471757       1.10550105      -0.49124189       0.00024744       0.00281353      -0.01652217      -0.00121088      -0.01626735      -0.01545094
Cl      -1.40235440       0.60142505       0.98028540      -0.01775939       0.00512232       0.00258680       0.19996154      -0.43324324      -0.40296535
Cl       4.33823502       0.50453831       0.76326353       0.05709683       0.05265589       0.06260786      -0.00154216       0.00157225      -0.01731861
H        0.89818845       1.79188284       0.64725310       0.02385352      -0.00958281      -0.01060770       0.08302967       0.09123306       0.00530405
C        0.45543275      -0.88127989      -1.29778245      -0.01756340       0.00981752       0.02419551      -0.15791395       0.05925592       0.09405363
N        0.62778209      -1.49477270      -2.29162372      -0.01188290      -0.01546392      -0.00991032      -0.12912245       0.04936587       0.09737506
C        1.06773456      -0.87597810       1.04527689      -0.00501528      -0.00347899      -0.01606419      -0.01245152       0.02714051       0.04252492
H        2.14910406      -0.78583388       0.88731786      -0.00465366      -0.03453901      -0.00749457      -0.01159085      -0.00803733      -0.02394792
H        0.82178996      -0.41291127       1.99653498       0.03000712       0.00337687      -0.01548409       0.07445055      -0.00563842       0.08670037
H        0.77312067      -1.92518093       1.05541738      -0.01609895       0.00554455       0.00146704      -0.03651321       0.02845933       0.02625699
C        0.28005086       2.02962624      -1.42137977      -0.00472229      -0.00226367       0.00522875       0.01346424       0.02390095       0.00281149
H        0.41447484       1.54488386      -2.39299016      -0.03758737      -0.00895303      -0.01369288       0.02319350       0.00643764       0.01114499
H       -0.79403522       2.11733797      -1.22726202      -0.00861882       0.01699904       0.02265781       0.01083161       0.03162313      -0.02360641
H        0.69583332       3.03502235      -1.48993700       0.02158606      -0.00574046      -0.00985325       0.01728263       0.02270932      -0.01431003
16
Properties=species:S:1:pos:R:3:mp2_forces:R:3:forces:R:3 R1=CN R2=CH3 R3=H R4=CH3 lg=Cl nu=Cl rxn-id=1495 mp2_energy=-31808.036779541617 energy=-31807.698836618052 free_energy=-31808.036777263427 pbc="F F F"
C        0.47568923      -0.25626685      -0.24926925      -0.01137202      -0.00341267      -0.00842053       0.00127586      -0.00637568      -0.00553752
C        0.95590398       1.18444201      -0.34331749       0.00248311      -0.01289515      -0.01069409      -0.00655905      -0.00341517       0.00078733
H        2.03898043       1.13712113      -0.46184199       0.00024744       0.00281353      -0.01652217      -0.00574826       0.00354108       0.00730971
Cl      -1.76281663       1.41198717       1.71928341      -0.01775939       0.00512232       0.00258680       0.03752056       0.03787256       0.01893301
Cl       4.34461033       0.50775529       0.77149133       0.05709683       0.05265589       0.06260786      -0.00270054       0.00859419      -0.00318729
H        0.74679173       1.62359139       0.63944744       0.02385352      -0.00958281      -0.01060770      -0.01702200      -0.00835509       0.00080034
C        0.75271476      -0.98882527      -1.46834307      -0.01756340       0.00981752       0.02419551       0.01103959      -0.00137324      -0.00312334
N        0.87118882      -1.58656248      -2.47476036      -0.01188290      -0.01546392      -0.00991032       0.01755931      -0.00013361      -0.00811643
C        1.08509663      -0.92884886       0.97144011      -0.00501528      -0.00347899      -0.01606419      -0.00475740      -0.00519957      -0.00150442
H        2.16614185      -0.77124732       0.94472651      -0.00465366      -0.03453901      -0.00749457      -0.00520353      -0.00034407       0.00704912
H        0.66923219      -0.41067984       1.84164425       0.03000712       0.00337687      -0.01548409      -0.01426630      -0.00764804      -0.00455309
H        0.83745019      -1.98157088       1.00453231      -0.01609895       0.00554455       0.00146704       0.00030883      -0.00655202      -0.00454846
C        0.25466467       1.98470470      -1.42508088      -0.00472229      -0.00226367       0.00522875      -0.00364046      -0.00300578      -0.00076752
H        0.37619335       1.53404793      -2.41234259      -0.03758737      -0.00895303      -0.01369288       0.00439350       0.00072507      -0.00147430
H       -0.81570461       2.05309712      -1.18573938      -0.00861882       0.01699904       0.02265781      -0.00474631      -0.00715802      -0.00706687
H        0.65825079       2.99461719      -1.45984374       0.02158606      -0.00574046      -0.00985325      -0.00745380      -0.00117262       0.00499975
16
Properties=species:S:1:pos:R:3:mp2_forces:R:3:forces:R:3 R1=CN R2=CH3 R3=H R4=CH3 lg=Cl nu=Cl rxn-id=1495 mp2_energy=-31808.036779541617 energy=-31807.81829045768 free_energy=-31808.036777263427 pbc="F F F"
C        0.39387079      -0.30371700      -0.41048750      -0.01137202      -0.00341267      -0.00842053      -0.00212840      -0.00155157       0.00003521
C        0.75909688       1.17457629      -0.43287319       0.00248311      -0.01289515      -0.01069409      -0.00292698      -0.00164573       0.00291903
H        1.84651567       1.21646998      -0.33831263       0.00024744       0.00281353      -0.01652217      -0.00348993      -0.00098250       0.00872323
Cl      -0.33291770       1.52534086       3.02500389      -0.01775939       0.00512232       0.00258680       0.00407045       0.01289514       0.00231217
Cl       3.99037875       0.67189735       1.25215835       0.05709683       0.05265589       0.06260786       0.00140557       0.01381506      -0.00956031
H        0.36065019       1.57775760       0.51305720       0.02385352      -0.00958281      -0.01060770      -0.00745134      -0.00211717       0.00120995
C        0.90510314      -0.98762198      -1.58297809      -0.01756340       0.00981752       0.02419551      -0.00175757       0.00054128      -0.00030122
N        1.24433469      -1.54895833      -2.55982132      -0.01188290      -0.01546392      -0.00991032      -0.00047493       0.00080870      -0.00109317
C        0.89196260      -0.94786088       0.87506133      -0.00501528      -0.00347899      -0.01606419      -0.00118689      -0.00412353      -0.00140850
H        1.96585749      -0.75877341       0.95668908      -0.00465366      -0.03453901      -0.00749457      -0.00018165      -0.01002622      -0.00521171
H        0.41013323      -0.41388318       1.70357222       0.03000712       0.00337687      -0.01548409       0.00397709      -0.00243329       0.00035271
H        0.66878892      -2.00641387       0.89552111      -0.01609895       0.00554455       0.00146704      -0.00662791      -0.00298327      -0.00144251
C        0.23814992       1.92807711      -1.64131618      -0.00472229      -0.00226367       0.00522875       0.00298918      -0.00075889       0.00119267
H        0.63429263       1.51509240      -2.57272207      -0.03758737      -0.00895303      -0.01369288       0.01184226       0.00374561       0.00406584
H       -0.85797861       1.89074752      -1.68878796      -0.00861882       0.01699904       0.02265781       0.00446870      -0.00534770      -0.00751294
H        0.53614912       2.97463196      -1.58173762       0.02158606      -0.00574046      -0.00985325      -0.00252765       0.00016407       0.00571954
16
Properties=species:S:1:pos:R:3:mp2_forces:R:3:forces:R:3 R1=CN R2=CH3 R3=H R4=CH3 lg=Cl nu=Cl rxn-id=1495 mp2_energy=-31808.036779541617 energy=-31807.82095706976 free_energy=-31808.036777263427 pbc="F F F"
C        0.35726886      -0.32279848      -0.41852078      -0.01137202      -0.00341267      -0.00842053       0.00044993      -0.00006486       0.00093079
C        0.71189133       1.15514833      -0.40780371       0.00248311      -0.01289515      -0.01069409       0.00151662      -0.00014270      -0.00014846
H        1.79119131       1.20634472      -0.23183366       0.00024744       0.00281353      -0.01652217       0.00204223      -0.00129775      -0.00306009
Cl      -0.06548038       1.58542619       3.09247612      -0.01775939       0.00512232       0.00258680      -0.01644368       0.00408526      -0.00078169
Cl       3.91203263       0.89922566       1.18204674       0.05709683       0.05265589       0.06260786       0.00393986      -0.00773509      -0.00161436
H        0.25800700       1.55260287       0.51616451       0.02385352      -0.00958281      -0.01060770       0.00352974       0.00016257       0.00095748
C        0.89192832      -0.98648742      -1.59227029      -0.01756340       0.00981752       0.02419551      -0.00167795       0.00030508       0.00064958
N        1.25594435      -1.53608754      -2.56678867      -0.01188290      -0.01546392      -0.00991032      -0.00228024      -0.00011168      -0.00237429
C        0.84481608      -0.98985710       0.86112483      -0.00501528      -0.00347899      -0.01606419       0.00286942       0.00055630       0.00062591
H        1.92622373      -0.85144672       0.92201445      -0.00465366      -0.03453901      -0.00749457       0.00273099       0.00302295       0.00003660
H        0.40971217      -0.43496727       1.70001407       0.03000712       0.00337687      -0.01548409       0.00166111      -0.00088860       0.00127106
H        0.57110032      -2.03771234       0.88279511      -0.01609895       0.00554455       0.00146704       0.00532909      -0.00004986       0.00034003
C        0.27895118       1.91615161      -1.64561453      -0.00472229      -0.00226367       0.00522875      -0.00055182       0.00039894       0.00066519
H        0.80848822       1.56100974      -2.53347774      -0.03758737      -0.00895303      -0.01369288      -0.00317097      -0.00046155      -0.00085573
H       -0.79887307       1.81413471      -1.82553714      -0.00861882       0.01699904       0.02265781      -0.00136160       0.00213334       0.00319872
H        0.50118566       2.97667547      -1.52276269       0.02158606      -0.00574046      -0.00985325       0.00141728       0.00008764       0.00015928
16
Properties=species:S:1:pos:R:3:mp2_forces:R:3:forces:R:3 R1=CN R2=CH3 R3=H R4=CH3 lg=Cl nu=Cl rxn-id=1495 mp2_energy=-31808.036779541617 energy=-31807.783180104045 free_energy=-31808.036777263427 pbc="F F F"
C        0.32247185      -0.30708479      -0.37852667      -0.01137202      -0.00341267      -0.00842053      -0.02432212       0.00173630       0.01406091
C        0.71190917       1.15939745      -0.40466170       0.00248311      -0.01289515      -0.01069409      -0.00151922       0.00076078       0.00371099
H        1.77397146       1.20898604      -0.14758214       0.00024744       0.00281353      -0.01652217       0.00585276      -0.00932364      -0.00987039
Cl      -0.02492941       1.35695273       3.23260858      -0.01775939       0.00512232       0.00258680      -0.01539294       0.02203546      -0.01094579
Cl       3.71573079       1.28994846       1.37983176       0.05709683       0.05265589       0.06260786       0.01513296      -0.02657915      -0.00940365
H        0.20457827       1.59424287       0.47664200       0.02385352      -0.00958281      -0.01060770       0.01124903       0.01100349       0.01238452
C        0.64745859      -1.00025577      -1.59937000      -0.01756340       0.00981752       0.02419551       0.02455046      -0.00311342      -0.01304661
N        0.79316549      -1.58815690      -2.60720157      -0.01188290      -0.01546392      -0.00991032       0.04735873      -0.00818573      -0.03444991
C        0.92259837      -0.99360822       0.83741680      -0.00501528      -0.00347899      -0.01606419      -0.00570377       0.00129737       0.00653773
H        2.00413791      -0.87119788       0.80163110      -0.00465366      -0.03453901      -0.00749457       0.00136163       0.00003613      -0.00550206
H        0.57396350      -0.44073522       1.71760447       0.03000712       0.00337687      -0.01548409       0.00206112       0.00738677       0.01561321
H        0.63961861      -2.03956687       0.87570957      -0.01609895       0.00554455       0.00146704      -0.01119537      -0.00112125       0.00658056
C        0.39692670       1.89051479      -1.69569031      -0.00472229      -0.00226367       0.00522875      -0.01049617       0.00091715       0.00569273
H        1.04826981       1.54491838      -2.50333817      -0.03758737      -0.00895303      -0.01369288      -0.02164032      -0.00632025      -0.00311981
H       -0.64273746       1.74329507      -2.00937956      -0.00861882       0.01699904       0.02265781      -0.01758076       0.00825900       0.01790041
H        0.56725405       2.95971229      -1.56366756       0.02158606      -0.00574046      -0.00985325       0.00028395       0.00121098       0.00385715
16
Properties=species:S:1:pos:R:3:mp2_forces:R:3:forces:R:3 R1=CN R2=CH3 R3=H R4=CH3 lg=Cl nu=Cl rxn-id=1495 mp2_energy=-31808.036779541617 energy=-31807.81274323447 free_energy=-31808.036777263427 pbc="F F F"