17
Properties=species:S:1:pos:R:3:mp2_forces:R:3:forces:R:3 R1=H R2=CH3 R3=CH3 R4=NH2 lg=Br nu=Cl rxn-id=669 mp2_energy=-88308.19840736475 energy=-88308.19840605545 free_energy=-88308.19840605545 pbc="F F F"
C        0.48998440      -0.01759957       0.07932018       0.00264404      -0.02546440      -0.00140422       0.00267288      -0.02545428      -0.00136015
C        0.77853113       1.47478718       0.06593254       0.02720807      -0.00295906       0.01093284       0.02720553      -0.00290372       0.01088210
H        1.87599631       1.47217703       0.04485047       0.02109353       0.05716342      -0.03774306       0.02109144       0.05715081      -0.03773878
Br      -1.46306915      -0.36072579      -0.16422997       0.00659148       0.01885043       0.03958424       0.00655601       0.01884976       0.03958134
Cl       3.78570348      -0.59420834      -0.64494606       0.03045460       0.04993148       0.02915920       0.03045179       0.04993160       0.02915823
H        0.96098491      -0.45084204      -0.80076526      -0.04022148       0.01630309      -0.05637411      -0.04021565       0.01629446      -0.05639480
C        0.96369303      -0.73807519       1.32186260      -0.01479141      -0.00104772       0.03845712      -0.01478601      -0.00106745       0.03844642
H        2.02048034      -0.49726624       1.45445389       0.00555905      -0.03843515      -0.03047418       0.00555979      -0.03842871      -0.03047326
H        0.38899330      -0.45908991       2.20638345      -0.05015182       0.03085756       0.03172617      -0.05015321       0.03086523       0.03172476
H        0.89290130      -1.81771453       1.18190348      -0.01222207       0.00962019      -0.00293191      -0.01222563       0.00962431      -0.00292747
C        0.29699095       2.23071617       1.30799663       0.00707383       0.00209040      -0.00736878       0.00709065       0.00208031      -0.00737152
H       -0.79320016       2.19841595       1.40053561      -0.00149967      -0.06807950      -0.03642497      -0.00150945      -0.06808167      -0.03643109
H        0.73826257       1.84087102       2.22899706      -0.01136181      -0.04901491      -0.01997515      -0.01136264      -0.04901406      -0.01996251
H        0.59230835       3.28197421       1.23293620       0.01168598       0.01492150      -0.04685483       0.01168118       0.01490996      -0.04685578
N        0.33346676       2.06055027      -1.19963316       0.00217547      -0.01226410       0.03619210       0.00216028      -0.01223806       0.03621185
H        0.63756359       3.02686992      -1.23848893       0.02492597      -0.01756237      -0.02154599       0.02491702      -0.01759639      -0.02153432
H       -0.68024045       2.05423731      -1.23864866      -0.00916378       0.01508915       0.07504553      -0.00913401       0.01507791       0.07504499
17
Properties=species:S:1:pos:R:3:mp2_forces:R:3:forces:R:3 R1=H R2=CH3 R3=CH3 R4=NH2 lg=Br nu=Cl rxn-id=669 mp2_energy=-88308.19840736475 energy=-88308.26768124766 free_energy=-88308.19840605545 pbc="F F F"
C        0.38372492      -0.05614415       0.07787784       0.00264404      -0.02546440      -0.00140422      -0.00624094      -0.00194993       0.00017071
C        0.75818838       1.41610754       0.04204462       0.02720807      -0.00295906       0.01093284      -0.00032925      -0.00416906      -0.00315178
H        1.85614724       1.37010545      -0.01224407       0.02109353       0.05716342      -0.03774306      -0.00082540      -0.01084298      -0.00871978
Br      -1.60306109      -0.27551441       0.02262324       0.00659148       0.01885043       0.03958424      -0.00665914       0.00192895       0.00557854
Cl       4.01886216       0.01723935      -0.27494415       0.03045460       0.04993148       0.02915920       0.01076440       0.04580355       0.02321717
H        0.72065877      -0.50511772      -0.85681524      -0.04022148       0.01630309      -0.05637411      -0.00846083      -0.00321560      -0.00036199
C        0.93594972      -0.80186715       1.27062328      -0.01479141      -0.00104772       0.03845712      -0.00532369      -0.00390541      -0.00125737
H        2.02395325      -0.66677928       1.25251297       0.00555905      -0.03843515      -0.03047418      -0.00538470      -0.00332031      -0.00342718
H        0.51823061      -0.43353485       2.20973393      -0.05015182       0.03085756       0.03172617      -0.00376018      -0.00536446       0.00014665
H        0.71929552      -1.86758935       1.19024505      -0.01222207       0.00962019      -0.00293191      -0.00620868      -0.00370224      -0.00215185
C        0.32985072       2.19215551       1.28652131       0.00707383       0.00209040      -0.00736878       0.00837693      -0.00142991      -0.00212340
H       -0.75046742       2.10969955       1.44932313      -0.00149967      -0.06807950      -0.03642497       0.00794176       0.00561046      -0.00074674
H        0.84507207       1.84294558       2.18449414      -0.01136181      -0.04901491      -0.01997515       0.00775755      -0.00692233      -0.00428342
H        0.57389320       3.24960696       1.15507970       0.01168598       0.01492150      -0.04685483       0.01462693      -0.00256898      -0.00070030
N        0.29514382       2.00412686      -1.20975352       0.00217547      -0.01226410       0.03619210      -0.00568658      -0.00280181       0.00004819
H        0.86261016       2.81509659      -1.42507147       0.02492597      -0.01756237      -0.02154599       0.00156150      -0.01106410      -0.01026360
H       -0.66870135       2.29454097      -1.12379069      -0.00916378       0.01508915       0.07504553      -0.00214968       0.00791415       0.00802616
17
Properties=species:S:1:pos:R:3:mp2_forces:R:3:forces:R:3 R1=H R2=CH3 R3=CH3 R4=NH2 lg=Br nu=Cl rxn-id=669 mp2_energy=-88308.19840736475 energy=-88308.25453174097 free_energy=-88308.19840605545 pbc="F F F"
C        0.40483015      -0.05140376       0.08462156       0.00264404      -0.02546440      -0.00140422      -0.00602268      -0.00321446      -0.00141218
C        0.76921031       1.42346911       0.05613443       0.02720807      -0.00295906       0.01093284      -0.00212793      -0.00443223      -0.00429062
H        1.86775396       1.38345141       0.01683715       0.02109353       0.05716342      -0.03774306      -0.00291178      -0.00695978      -0.01150005
Br      -1.57852653      -0.28580100      -0.01357236       0.00659148       0.01885043       0.03958424      -0.00574068       0.00073627       0.00437385
Cl       3.96722287      -0.06275787      -0.43172761       0.03045460       0.04993148       0.02915920       0.00891907       0.04834636       0.03075291
H        0.76693673      -0.49829164      -0.84124050      -0.04022148       0.01630309      -0.05637411      -0.00824542      -0.00669554      -0.00125299
C        0.93524121      -0.79131961       1.29112020      -0.01479141      -0.00104772       0.03845712      -0.00383200      -0.00412423      -0.00193817
H        2.02112410      -0.64458665       1.29930142       0.00555905      -0.03843515      -0.03047418      -0.00302949      -0.00756046      -0.00543247
H        0.48838957      -0.43134203       2.21994612      -0.05015182       0.03085756       0.03172617       0.00072318      -0.00059513      -0.00086297
H        0.73587578      -1.85978149       1.20261372      -0.01222207       0.00962019      -0.00293191      -0.00927127      -0.00373565       0.00019777
C        0.31012058       2.19532281       1.29235827       0.00707383       0.00209040      -0.00736878       0.00831356      -0.00251861      -0.00131710
H       -0.77083749       2.09219648       1.43989177      -0.00149967      -0.06807950      -0.03642497       0.00762546       0.00839857       0.00128330
H        0.81822198       1.85904991       2.19905481      -0.01136181      -0.04901491      -0.01997515       0.00726617      -0.00896156      -0.00256955
H        0.53383775       3.25731847       1.16076410       0.01168598       0.01492150      -0.04685483       0.01943831      -0.00431444       0.00033044
N        0.32289511       2.00860177      -1.20305373       0.00217547      -0.01226410       0.03619210      -0.00886277      -0.00320601      -0.00112370
H        0.87579670       2.83475673      -1.39874452       0.02492597      -0.01756237      -0.02154599       0.00242339      -0.01220587      -0.01215827
H       -0.64874212       2.27619481      -1.13584477      -0.00916378       0.01508915       0.07504553      -0.00466511       0.01104278       0.00691980
17
Properties=species:S:1:pos:R:3:mp2_forces:R:3:forces:R:3 R1=H R2=CH3 R3=CH3 R4=NH2 lg=Br nu=Cl rxn-id=669 mp2_energy=-88308.19840736475 energy=-88308.23915134525 free_energy=-88308.19840605545 pbc="F F F"
C        0.43007509      -0.04221784       0.08216097       0.00264404      -0.02546440      -0.00140422      -0.00751699      -0.00449561      -0.00198045
C        0.78039808       1.43638558       0.05889229       0.02720807      -0.00295906       0.01093284      -0.00296379      -0.00521375      -0.00377607
H        1.87939196       1.40981280       0.02322304       0.02109353       0.05716342      -0.03774306      -0.00374090      -0.01028783      -0.00946370
Br      -1.54940841      -0.29219125      -0.05899606       0.00659148       0.01885043       0.03958424      -0.00617258      -0.00201892       0.00061901
Cl       3.93632613      -0.19482525      -0.50856469       0.03045460       0.04993148       0.02915920       0.00441933       0.05375595       0.03275043
H        0.81911519      -0.48850307      -0.83273604      -0.04022148       0.01630309      -0.05637411      -0.01240071      -0.00856835      -0.00328670
C        0.93340996      -0.77677995       1.30377080      -0.01479141      -0.00104772       0.03845712      -0.00177827      -0.00287329      -0.00213248
H        2.01534790      -0.61438714       1.34891966       0.00555905      -0.03843515      -0.03047418      -0.00013526      -0.00905626      -0.01064648
H        0.44792674      -0.43031893       2.21822168      -0.05015182       0.03085756       0.03172617       0.00803360       0.00575044      -0.00024548
H        0.75740054      -1.84851044       1.20263002      -0.01222207       0.00962019      -0.00293191      -0.01180733      -0.00162728       0.00407928
C        0.30746330       2.19890885       1.29560992       0.00707383       0.00209040      -0.00736878       0.00710719      -0.00368332      -0.00003127
H       -0.77063045       2.07150340       1.44458337      -0.00149967      -0.06807950      -0.03642497       0.00554567       0.01020341       0.00201790
H        0.82437927       1.87531358       2.20183714      -0.01136181      -0.04901491      -0.01997515       0.00489536      -0.01245891      -0.00141031
H        0.50603209       3.26597963       1.16238415       0.01168598       0.01492150      -0.04685483       0.02117118      -0.00552046       0.00314811
N        0.33023229       2.02087844      -1.20009416       0.00217547      -0.01226410       0.03619210      -0.00792722      -0.00319079      -0.00060164
H        0.82975795       2.88915879      -1.35723294       0.02492597      -0.01756237      -0.02154599       0.00762346      -0.01395377      -0.01504501
H       -0.65786697       2.22487026      -1.14614907      -0.00916378       0.01508915       0.07504553      -0.00435276       0.01323877       0.00600484
17
Properties=species:S:1:pos:R:3:mp2_forces:R:3:forces:R:3 R1=H R2=CH3 R3=CH3 R4=NH2 lg=Br nu=Cl rxn-id=669 mp2_energy=-88308.19840736475 energy=-88308.21452696522 free_energy=-88308.19840605545 pbc="F F F"
C        0.46926882      -0.02659052       0.07778741       0.00264404      -0.02546440      -0.00140422      -0.01338837      -0.00420184       0.00346344
C        0.79095785       1.45937968       0.06403856       0.02720807      -0.00295906       0.01093284      -0.00583077      -0.00514013      -0.00129174
H        1.89089298       1.46538994       0.03742193       0.02109353       0.05716342      -0.03774306      -0.00618751      -0.01770353      -0.00535490
Br      -1.50522890      -0.30086481      -0.11694496       0.00659148       0.01885043       0.03958424       0.01813774      -0.01822900      -0.01729221
Cl       3.91907729      -0.40535678      -0.62574502       0.03045460       0.04993148       0.02915920      -0.00932464       0.04694533       0.03645476
H        0.90170630      -0.47019122      -0.81906479      -0.04022148       0.01630309      -0.05637411      -0.04035181      -0.01007761      -0.00770367
C        0.93458640      -0.75311682       1.31918371      -0.01479141      -0.00104772       0.03845712       0.00209010      -0.00194313      -0.00037615
H        2.01258187      -0.58646727       1.40785403       0.00555905      -0.03843515      -0.03047418       0.00399919      -0.00251185      -0.02168028
H        0.41017969      -0.40924576       2.21263648      -0.05015182       0.03085756       0.03172617       0.01779436       0.00293573       0.00827262
H        0.77085997      -1.82613890       1.21149940      -0.01222207       0.00962019      -0.00293191      -0.00414433      -0.00176751       0.00871131
C        0.29327307       2.20005578       1.30477884       0.00707383       0.00209040      -0.00736878       0.00526215       0.00005270       0.00033780
H       -0.78053110       2.03900133       1.45032058      -0.00149967      -0.06807950      -0.03642497       0.00282631       0.01510174       0.00232966
H        0.81796021       1.88761065       2.21037296      -0.01136181      -0.04901491      -0.01997515       0.00184313      -0.01089950      -0.00153021
H        0.45989854       3.27325523       1.17754934       0.01168598       0.01492150      -0.04685483       0.01976161      -0.00126141       0.00358436
N        0.33360917       2.04012823      -1.19468446       0.00217547      -0.01226410       0.03619210      -0.00562659      -0.00127675      -0.00061913
H        0.76828778       2.94817350      -1.31833958       0.02492597      -0.01756237      -0.02154599       0.01595283      -0.01116772      -0.01168468
H       -0.66802931       2.17005520      -1.16020437      -0.00916378       0.01508915       0.07504553      -0.00281340       0.02114449       0.00437900
17
Properties=species:S:1:pos:R:3:mp2_forces:R:3:forces:R:3 R1=H R2=CH3 R3=CH3 R4=NH2 lg=Br nu=Cl rxn-id=669 mp2_energy=-88308.19840736475 energy=-88308.05863974085 free_energy=-88308.19840605545 pbc="F F F"
C        0.53344617      -0.00564236       0.05776364       0.00264404      -0.02546440      -0.00140422      -0.17584203       0.02377939       0.08350523
C        0.81536473       1.48814885       0.06482470       0.02720807      -0.00295906       0.01093284      -0.03927636       0.00592114       0.01532850
H        1.91441772       1.55629444       0.05266926       0.02109353       0.05716342      -0.03774306      -0.02434893      -0.05257088      -0.00484044
Br      -1.57783454      -0.21649797      -0.07382606       0.00659148       0.01885043       0.03958424       0.67650845      -0.11801679      -0.19069952
Cl       3.95964447      -0.63788257      -0.77489280       0.03045460       0.04993148       0.02915920      -0.04296637       0.02736033       0.03787453
H        1.10412853      -0.42066387      -0.78442493      -0.04022148       0.01630309      -0.05637411      -0.45924780      -0.07656104      -0.06040631
C        0.92414714      -0.73118028       1.32359091      -0.01479141      -0.00104772       0.03845712      -0.00718259       0.00167810       0.02635558
H        1.99451733      -0.56499081       1.49602320       0.00555905      -0.03843515      -0.03047418       0.00343512       0.01441448      -0.04677690
H        0.33461323      -0.38932864       2.17192703      -0.05015182       0.03085756       0.03172617       0.03947965      -0.02569121       0.07655983
H        0.77685594      -1.80433705       1.19792937      -0.01222207       0.00962019      -0.00293191      -0.00513246      -0.00216893       0.02269860
C        0.27613022       2.18841909       1.31115859       0.00707383       0.00209040      -0.00736878       0.00270257       0.03238023       0.01288534
H       -0.78891621       1.97038852       1.44608301      -0.00149967      -0.06807950      -0.03642497      -0.00086324       0.05777725       0.03296412
H        0.81331356       1.89307363       2.21573483      -0.01136181      -0.04901491      -0.01997515      -0.00030288       0.00469091       0.00414667
H        0.39375101       3.26810490       1.19360847       0.01168598       0.01492150      -0.04685483       0.01645066       0.02706926       0.01536289
N        0.34448055       2.04746227      -1.19388576       0.00217547      -0.01226410       0.03619210      -0.01192893       0.01937132       0.00520292
H        0.67176352       3.00288208      -1.28003392       0.02492597      -0.01756237      -0.02154599       0.03012700       0.00395285      -0.00860628
H       -0.67047270       2.06082721      -1.18578944      -0.00916378       0.01508915       0.07504553      -0.00161185       0.05661360      -0.02155475
17
Properties=species:S:1:pos:R:3:mp2_forces:R:3:forces:R:3 R1=H R2=CH3 R3=CH3 R4=NH2 lg=Br nu=Cl rxn-id=669 mp2_energy=-88308.19840736475 energy=-88307.8316645653 free_energy=-88308.19840605545 pbc="F F F"
C        0.60964390      -0.01510557       0.02114198       0.00264404      -0.02546440      -0.00140422      -0.02652058       0.00157025       0.00674051
C        0.83177827       1.48642528       0.05801779       0.02720807      -0.00295906       0.01093284      -0.01132084       0.00006110       0.00070973
H        1.92461413       1.58051705       0.05460506       0.02109353       0.05716342      -0.03774306      -0.00898676      -0.00489956      -0.00177303
Br      -1.87105961      -0.16664518       0.00900561       0.00659148       0.01885043       0.03958424       0.12170277      -0.02478257      -0.02334056
Cl       3.97816975      -0.65139085      -0.79140268       0.03045460       0.04993148       0.02915920      -0.01298427       0.00429899       0.00608168
H        1.30290842      -0.38712021      -0.75810045      -0.04022148       0.01630309      -0.05637411      -0.05222052      -0.01058318      -0.01023936
C        0.92734433      -0.73075530       1.31218696      -0.01479141      -0.00104772       0.03845712      -0.00719660       0.00164659       0.00193939
H        1.99326793      -0.56962829       1.51649090       0.00555905      -0.03843515      -0.03047418      -0.00300049       0.00036192      -0.00909126
H        0.31612586      -0.37773826       2.13806646      -0.05015182       0.03085756       0.03172617       0.00110907      -0.00001267       0.00980987
H        0.78033939      -1.80221838       1.18845526      -0.01222207       0.00962019      -0.00293191      -0.00621200       0.00061598       0.00741836
C        0.27497270       2.17432045       1.30625348       0.00707383       0.00209040      -0.00736878      -0.00031002       0.00474568       0.00351707
H       -0.78852683       1.94577276       1.43206586      -0.00149967      -0.06807950      -0.03642497      -0.00122410       0.01380409       0.00956598
H        0.81272857       1.88767745       2.21356189      -0.01136181      -0.04901491      -0.01997515       0.00065954      -0.00349319      -0.00014907
H        0.38836130       3.25618157       1.19006188       0.01168598       0.01492150      -0.04685483       0.00917069       0.00368420       0.00560988
N        0.34939250       2.03853050      -1.19656845       0.00217547      -0.01226410       0.03619210      -0.00575320       0.00191618       0.00030525
H        0.65906940       3.00051398      -1.27794708       0.02492597      -0.01756237      -0.02154599       0.00663557      -0.00130965      -0.00427503
H       -0.66977936       2.03574047      -1.17743441      -0.00916378       0.01508915       0.07504553      -0.00354826       0.01237581      -0.00282942
17
Properties=species:S:1:pos:R:3:mp2_forces:R:3:forces:R:3 R1=H R2=CH3 R3=CH3 R4=NH2 lg=Br nu=Cl rxn-id=669 mp2_energy=-88308.19840736475 energy=-88307.95390473094 free_energy=-88308.19840605545 pbc="F F F"
C        0.74302774      -0.01600351      -0.00088702       0.00264404      -0.02546440      -0.00140422       0.05325588      -0.00218410      -0.00640814
C        0.89468118       1.49423208       0.05364985       0.02720807      -0.00295906       0.01093284       0.02280130       0.00219994      -0.00182423
H        1.97408721       1.63306794       0.05635190       0.02109353       0.05716342      -0.03774306       0.01639486       0.02531337      -0.00056554
Br      -2.47836567      -0.04483867       0.07603448       0.00659148       0.01885043       0.03958424      -0.23555123       0.06112243       0.00940401
Cl       4.02722807      -0.68224608      -0.80999964       0.03045460       0.04993148       0.02915920       0.01626058      -0.01116961      -0.00582335
H        1.49788705      -0.34071093      -0.71214187      -0.04022148       0.01630309      -0.05637411       0.06869838       0.01484120       0.01147062
C        0.98664466      -0.73044490       1.30871656      -0.01479141      -0.00104772       0.03845712       0.02927345      -0.00006211       0.00070731
H        2.02491250      -0.56054822       1.57675661       0.00555905      -0.03843515      -0.03047418       0.01796961       0.00492718       0.02818176
H        0.30571444      -0.37309137       2.08035884      -0.05015182       0.03085756       0.03172617      -0.00113623       0.00472779      -0.02483076
H        0.83655979      -1.79771591       1.16823036      -0.01222207       0.00962019      -0.00293191       0.02812004       0.00146668      -0.00043356
C        0.28284229       2.14802852       1.29386240       0.00707383       0.00209040      -0.00736878       0.00258900      -0.01226826      -0.00286162
H       -0.78008755       1.88052685       1.38119010      -0.00149967      -0.06807950      -0.03642497       0.00150482      -0.02208136      -0.01676900
H        0.80095593       1.86672783       2.21155329      -0.01136181      -0.04901491      -0.01997515      -0.00537830      -0.01587881      -0.00054083
H        0.36329704       3.23267517       1.18970394       0.01168598       0.01492150      -0.04685483      -0.00468532      -0.01069334       0.00554148
N        0.37331252       2.02620614      -1.20023848       0.00217547      -0.01226410       0.03619210       0.00505590      -0.00785833      -0.00125439
H        0.62116539       3.00169998      -1.27321845       0.02492597      -0.01756237      -0.02154599      -0.01768849      -0.00338723      -0.00114245
H       -0.65451192       1.96751254      -1.16146280      -0.00916378       0.01508915       0.07504553       0.00251574      -0.02901544       0.00714868
17
Properties=species:S:1:pos:R:3:mp2_forces:R:3:forces:R:3 R1=H R2=CH3 R3=CH3 R4=NH2 lg=Br nu=Cl rxn-id=669 mp2_energy=-88308.19840736475 energy=-88308.10916908548 free_energy=-88308.19840605545 pbc="F F F"
C        0.89220828      -0.06439536       0.03345547       0.00264404      -0.02546440      -0.00140422       0.00905266       0.00105213      -0.00154232
C        0.88994215       1.45528764       0.06730178       0.02720807      -0.00295906       0.01093284      -0.00112240       0.00517313       0.00165676
H        1.94578275       1.71955761       0.06468198       0.02109353       0.05716342      -0.03774306      -0.00252278       0.01068657       0.00620749
Br      -2.98511521       0.98689404      -0.18528746       0.00659148       0.01885043       0.03958424      -0.01666207       0.03727846      -0.01626561
Cl       4.05134567      -0.88458820      -0.87464199       0.03045460       0.04993148       0.02915920       0.00206407      -0.01875445      -0.00466075
H        1.66669191      -0.33577687      -0.68574386      -0.04022148       0.01630309      -0.05637411       0.00772012       0.00182416       0.00298957
C        1.20002242      -0.73206512       1.35174465      -0.01479141      -0.00104772       0.03845712       0.00859450       0.00208745       0.00080282
H        2.15923639      -0.36512694       1.70407550       0.00555905      -0.03843515      -0.03047418       0.00879889       0.00880805      -0.00553178
H        0.41217596      -0.51746316       2.07529363      -0.05015182       0.03085756       0.03172617       0.00984411      -0.00092374       0.00606205
H        1.28426299      -1.80458911       1.20149410      -0.01222207       0.00962019      -0.00293191       0.01225198      -0.00039261       0.00604092
C        0.20192086       2.03802331       1.29899600       0.00707383       0.00209040      -0.00736878      -0.00205144      -0.00135389       0.00567393
H       -0.84844714       1.71022035       1.33028688      -0.00149967      -0.06807950      -0.03642497      -0.00196106      -0.00047748      -0.00052584
H        0.70705714       1.77591557       2.23056690      -0.01136181      -0.04901491      -0.01997515      -0.01159207      -0.01700863      -0.00035667
H        0.20317616       3.12653624       1.21073699       0.01168598       0.01492150      -0.04685483      -0.00107847      -0.00359925       0.01238951
N        0.29590942       1.91140194      -1.18268727       0.00217547      -0.01226410       0.03619210      -0.00475190      -0.00691534      -0.00345738
H        0.47545926       2.89332521      -1.29665907       0.02492597      -0.01756237      -0.02154599      -0.01041361      -0.00560806      -0.00378032
H       -0.73227835       1.79192031      -1.10515416      -0.00916378       0.01508915       0.07504553      -0.00617053      -0.01187652      -0.00570239
17
Properties=species:S:1:pos:R:3:mp2_forces:R:3:forces:R:3 R1=H R2=CH3 R3=CH3 R4=NH2 lg=Br nu=Cl rxn-id=669 mp2_energy=-88308.19840736475 energy=-88308.29944737969 free_energy=-88308.19840605545 pbc="F F F"
C        0.77406227      -0.08703024       0.13568778       0.00264404      -0.02546440      -0.00140422      -0.02140221      -0.00271775       0.01363420
C        0.78878559       1.43006096       0.11665190       0.02720807      -0.00295906       0.01093284      -0.00634646      -0.00189276       0.00252412
H        1.83511232       1.71398265       0.13242303       0.02109353       0.05716342      -0.03774306      -0.00541438      -0.01710747       0.00549108
Br      -3.23203842       1.55218698      -0.21107493       0.00659148       0.01885043       0.03958424      -0.00563033       0.02535948      -0.03455352
Cl       5.71466384      -1.24743667      -1.59572218       0.03045460       0.04993148       0.02915920       0.05023227      -0.00993833      -0.01087670
H        1.41993853      -0.40031670      -0.67518972      -0.04022148       0.01630309      -0.05637411      -0.03364958      -0.01148211       0.00683600
C        1.16480793      -0.71860347       1.44508793      -0.01479141      -0.00104772       0.03845712       0.00638202      -0.00058604       0.00491336
H        2.12738086      -0.33616930       1.76695620       0.00555905      -0.03843515      -0.03047418       0.00614517       0.02141432      -0.02445452
H        0.41207725      -0.46950304       2.19861023      -0.05015182       0.03085756       0.03172617       0.01582363      -0.02166555       0.00973661
H        1.21864562      -1.79922786       1.34139296      -0.01222207       0.00962019      -0.00293191       0.01684252       0.01141170      -0.00271266
C        0.07332144       2.02804905       1.32811458       0.00707383       0.00209040      -0.00736878      -0.00053932      -0.00210922       0.00014403
H       -0.98104097       1.71185248       1.33875437      -0.00149967      -0.06807950      -0.03642497       0.00265068       0.00460535      -0.00008924
H        0.55716514       1.76335854       2.26899926      -0.01136181      -0.04901491      -0.01997515      -0.00838480       0.00050785       0.00745398
H        0.07841214       3.11565005       1.23914811       0.01168598       0.01492150      -0.04685483       0.00733212       0.00123047      -0.00894649
N        0.22213554       1.84798755      -1.16005457       0.00217547      -0.01226410       0.03619210      -0.00977428       0.00055381       0.01129758
H        0.45658370       2.80786889      -1.33605337       0.02492597      -0.01756237      -0.02154599       0.00003752      -0.00360956       0.00811078
H       -0.81066212       1.79236758      -1.09527153      -0.00916378       0.01508915       0.07504553      -0.01430455       0.00602582       0.01149138
17
Properties=species:S:1:pos:R:3:mp2_forces:R:3:forces:R:3 R1=H R2=CH3 R3=CH3 R4=NH2 lg=Br nu=Cl rxn-id=669 mp2_energy=-88308.19840736475 energy=-88308.37160814634 free_energy=-88308.19840605545 pbc="F F F"
C        1.08345508      -0.01005687       0.07411185       0.00264404      -0.02546440      -0.00140422       0.03281712      -0.00443634      -0.02328977
C        0.90723484       1.50828191       0.10385957       0.02720807      -0.00295906       0.01093284       0.00648390      -0.01054941       0.00033806
H        1.90728676       1.95353050       0.12860259       0.02109353       0.05716342      -0.03774306       0.02095102      -0.00877333       0.01397932
Br      -3.13734783       1.42203438      -0.31349907       0.00659148       0.01885043       0.03958424      -0.00703536      -0.01974437      -0.03491697
Cl       5.88531888      -1.34264465      -1.55848279       0.03045460       0.04993148       0.02915920      -0.00000000      -0.00000000      -0.00000000
H        0.24036669      -0.42821291      -0.45608051      -0.04022148       0.01630309      -0.05637411      -0.12013741      -0.01263493       0.02139914
C        1.24830143      -0.68457351       1.41135912      -0.01479141      -0.00104772       0.03845712       0.00188649       0.00214344       0.00352940