11
Properties=species:S:1:pos:R:3:mp2_forces:R:3:forces:R:3 R1=H R2=H R3=CN R4=CN lg=Br nu=Br rxn-id=93 mp2_energy=-147186.52730647416 energy=-147186.52730647416 free_energy=-147186.52730647416 pbc="F F F"
C        0.67720009      -0.04269356      -0.00199919      -0.01654675      -0.04559515      -0.00043988      -0.01654675      -0.04559515      -0.00043988
C        1.15467509       1.40781332      -0.00177018      -0.01371982      -0.03720091       0.00356585      -0.01371982      -0.03720091       0.00356585
H        2.26076456       1.28369535       0.00027307      -0.01005254       0.01267933       0.00539136      -0.01005254       0.01267933       0.00539136
Br      -1.26511693      -0.21701814      -0.00052781      -0.00399999       0.07590633      -0.00182799      -0.00399999       0.07590633      -0.00182799
Br       3.96424467      -0.42550267       0.03889172       0.01281030       0.04421895      -0.00319813       0.01281030       0.04421895      -0.00319813
H        1.06307226      -0.54419727      -0.88412796       0.01038675      -0.01559011      -0.02714514       0.01038675      -0.01559011      -0.02714514
H        1.06528712      -0.54479072       0.87871727       0.00936915      -0.01447307       0.02866253       0.00936915      -0.01447307       0.02866253
C        0.74033801       2.13866816       1.19634449       0.01282680      -0.02728549      -0.03399327       0.01282680      -0.02728549      -0.03399327
N        0.41395071       2.72133843       2.16166082      -0.00373170       0.01703339       0.03405402      -0.00373170       0.01703339       0.03405402
C        0.74294664       2.13875221      -1.20049270      -0.00268168      -0.01747603       0.01350522      -0.00268168      -0.01747603       0.01350522
N        0.41734385       2.72045988      -2.16690965       0.00533948       0.00778274      -0.01857455       0.00533948       0.00778274      -0.01857455
11
Properties=species:S:1:pos:R:3:mp2_forces:R:3:forces:R:3 R1=H R2=H R3=CN R4=CN lg=Br nu=Br rxn-id=93 mp2_energy=-147186.52730647416 energy=-147186.51593640153 free_energy=-147186.52730647416 pbc="F F F"
C        0.69366167      -0.03876182      -0.00169241      -0.01654675      -0.04559515      -0.00043988      -0.00594573      -0.01041500       0.00010924
C        1.16227257       1.41522354      -0.00218805      -0.01371982      -0.03720091       0.00356585      -0.00432051      -0.01392636       0.00022028
H        2.26704905       1.31855741      -0.00114289      -0.01005254       0.01267933       0.00539136      -0.00497557      -0.03206213       0.00104759
Br      -1.25424879      -0.15321783      -0.00712716      -0.00399999       0.07590633      -0.00182799      -0.00882951      -0.00427204       0.00143534
Br       3.96405494      -0.46561293       0.04033636       0.01281030       0.04421895      -0.00319813       0.01307384       0.03716453      -0.00143335
H        1.08080967      -0.54211950      -0.88407050       0.01038675      -0.01559011      -0.02714514      -0.00789139      -0.00814020       0.00078099
H        1.07653361      -0.54032503       0.88333327       0.00936915      -0.01447307       0.02866253      -0.00590612      -0.00831532      -0.00162059
C        0.73184782       2.13334341       1.20017856       0.01282680      -0.02728549      -0.03399327       0.00246988      -0.00162116      -0.00486452
N        0.39348842       2.68867637       2.17800073      -0.00373170       0.01703339       0.03405402       0.00766530       0.02157860      -0.01597716
C        0.73019886       2.13298859      -1.20420081      -0.00268168      -0.01747603       0.01350522       0.00403735      -0.00173280       0.00476470
N        0.38903825       2.68777277      -2.18136724       0.00533948       0.00778274      -0.01857455       0.01062247       0.02174188       0.01553750
11
Properties=species:S:1:pos:R:3:mp2_forces:R:3:forces:R:3 R1=H R2=H R3=CN R4=CN lg=Br nu=Br rxn-id=93 mp2_energy=-147186.52730647416 energy=-147186.50776578003 free_energy=-147186.52730647416 pbc="F F F"
C        0.71006369      -0.02619774      -0.00175225      -0.01654675      -0.04559515      -0.00043988      -0.01132960      -0.01221937       0.00004803
C        1.16287000       1.43343398      -0.00287929      -0.01371982      -0.03720091       0.00356585      -0.00386382      -0.01937903       0.00031966
H        2.26792136       1.35169294      -0.00298813      -0.01005254       0.01267933       0.00539136      -0.00507934      -0.03927845       0.00148190
Br      -1.23652753      -0.15407516      -0.00975883      -0.00399999       0.07590633      -0.00182799      -0.01399175      -0.01155343       0.00220218
Br       3.93177589      -0.53202548       0.04310073       0.01281030       0.04421895      -0.00319813       0.02177538       0.04578966      -0.00166423
H        1.10458351      -0.52683873      -0.88205683       0.01038675      -0.01559011      -0.02714514      -0.01145198      -0.00992853       0.00151574
H        1.09780396      -0.52365236       0.88312624       0.00936915      -0.01447307       0.02866253      -0.00854059      -0.01048620      -0.00309100
C        0.72397547       2.13834418       1.20492711       0.01282680      -0.02728549      -0.03399327       0.00382243      -0.00350745      -0.00781206
N        0.38125547       2.66889228       2.19506425      -0.00373170       0.01703339       0.03405402       0.00932887       0.03211453      -0.02563001
C        0.71954595       2.13826935      -1.20919056      -0.00268168      -0.01747603       0.01350522       0.00591733      -0.00382850       0.00763734
N        0.37143831       2.66868173      -2.19753257       0.00533948       0.00778274      -0.01857455       0.01341309       0.03227677       0.02499243
11
Properties=species:S:1:pos:R:3:mp2_forces:R:3:forces:R:3 R1=H R2=H R3=CN R4=CN lg=Br nu=Br rxn-id=93 mp2_energy=-147186.52730647416 energy=-147186.50887087805 free_energy=-147186.52730647416 pbc="F F F"
C        0.70985229      -0.02943339      -0.00164260      -0.01654675      -0.04559515      -0.00043988      -0.00526748      -0.01242914       0.00023872
C        1.16399097       1.42988807      -0.00267187      -0.01371982      -0.03720091       0.00356585      -0.00842990      -0.01659290       0.00025996
H        2.26869488       1.35130612      -0.00254932      -0.01005254       0.01267933       0.00539136      -0.00595374      -0.05104110       0.00151689
Br      -1.23670284      -0.15543439      -0.00892525      -0.00399999       0.07590633      -0.00182799      -0.01440792      -0.01187535       0.00169576
Br       3.92691763      -0.52516255       0.04185575       0.01281030       0.04421895      -0.00319813       0.03076124       0.04096567      -0.00146763
H        1.10406272      -0.53105593      -0.88169565       0.01038675      -0.01559011      -0.02714514      -0.01285170      -0.00505009       0.00066197
H        1.09771522      -0.52808641       0.88268207       0.00936915      -0.01447307       0.02866253      -0.00982114      -0.00550203      -0.00207185
C        0.72476589       2.13718538       1.20319412       0.01282680      -0.02728549      -0.03399327       0.00255393       0.00094069      -0.00617715
N        0.38112388       2.67536810       2.18870919      -0.00373170       0.01703339       0.03405402       0.00763694       0.02991256      -0.01861910
C        0.72114708       2.13701468      -1.20737994      -0.00268168      -0.01747603       0.01350522       0.00466335       0.00060367       0.00586996
N        0.37313835       2.67493531      -2.19151663       0.00533948       0.00778274      -0.01857455       0.01111641       0.03006803       0.01809247
11
Properties=species:S:1:pos:R:3:mp2_forces:R:3:forces:R:3 R1=H R2=H R3=CN R4=CN lg=Br nu=Br rxn-id=93 mp2_energy=-147186.52730647416 energy=-147186.49274101638 free_energy=-147186.52730647416 pbc="F F F"
C        0.73199502      -0.02377252      -0.00097757      -0.01654675      -0.04559515      -0.00043988      -0.01782204      -0.00364330       0.00046621
C        1.17338667       1.44109292      -0.00231794      -0.01371982      -0.03720091       0.00356585      -0.02734033      -0.00676369       0.00006011
H        2.27790878       1.40711596      -0.00275833      -0.01005254       0.01267933       0.00539136      -0.02267182      -0.13612161       0.00241884
Br      -1.21706532      -0.12889062      -0.00982585      -0.00399999       0.07590633      -0.00182799      -0.01900965      -0.05000520       0.00089821
Br       3.86192999      -0.56755092       0.03849231       0.01281030       0.04421895      -0.00319813       0.11182897       0.02124533      -0.00050063
H        1.12948270      -0.52858238      -0.87790175       0.01038675      -0.01559011      -0.02714514      -0.02361744       0.01639896      -0.00264527
H        1.12016532      -0.52488263       0.88200856       0.00936915      -0.01447307       0.02866253      -0.01805612       0.01676919       0.00095994
C        0.71787813       2.13091534       1.20654148       0.01282680      -0.02728549      -0.03399327       0.00167399       0.02841415      -0.00186089
N        0.36582329       2.65107235       2.19834814      -0.00373170       0.01703339       0.03405402       0.00391269       0.04237132      -0.00619942
C        0.71431829       2.13028185      -1.21028439      -0.00268168      -0.01747603       0.01350522       0.00440180       0.02840778       0.00087626
N        0.35888319       2.64972566      -2.20126477       0.00533948       0.00778274      -0.01857455       0.00669996       0.04292708       0.00552664
11
Properties=species:S:1:pos:R:3:mp2_forces:R:3:forces:R:3 R1=H R2=H R3=CN R4=CN lg=Br nu=Br rxn-id=93 mp2_energy=-147186.52730647416 energy=-147186.4541655478 free_energy=-147186.52730647416 pbc="F F F"
C        0.75565784      -0.02527418      -0.00072878      -0.01654675      -0.04559515      -0.00043988      -0.08214485       0.04453397       0.00000110
C        1.18742623       1.44959455      -0.00237152      -0.01371982      -0.03720091       0.00356585      -0.06879108       0.00441499      -0.00014629
H        2.29227799       1.48863095      -0.00385650      -0.01005254       0.01267933       0.00539136      -0.06850539      -0.28758413       0.00320204
Br      -1.19742817      -0.10603342      -0.01101908      -0.00399999       0.07590633      -0.00182799      -0.02752863      -0.07404742       0.00061688
Br       3.79035532      -0.59719697       0.03793600       0.01281030       0.04421895      -0.00319813       0.24623839      -0.01827594       0.00117757
H        1.14286367      -0.53576877      -0.88127857       0.01038675      -0.01559011      -0.02714514      -0.00422633       0.06390395       0.03846589
H        1.13103300      -0.53132131       0.88727268       0.00936915      -0.01447307       0.02866253       0.00364070       0.06412377      -0.04046733
C        0.71398580       2.12111613       1.20983360       0.01282680      -0.02728549      -0.03399327       0.00279728       0.05403691      -0.00084858
N        0.35885005       2.62699643       2.20764753      -0.00373170       0.01703339       0.03405402      -0.00505609       0.04641704      -0.00110424
C        0.70921988       2.12031597      -1.21324893      -0.00268168      -0.01747603       0.01350522       0.00616580       0.05496807      -0.00059848
N        0.35046444       2.62546561      -2.21012654       0.00533948       0.00778274      -0.01857455      -0.00258979       0.04750877      -0.00029856
11
Properties=species:S:1:pos:R:3:mp2_forces:R:3:forces:R:3 R1=H R2=H R3=CN R4=CN lg=Br nu=Br rxn-id=93 mp2_energy=-147186.52730647416 energy=-147186.38099997246 free_energy=-147186.52730647416 pbc="F F F"
C        0.77925228      -0.03385103      -0.00054906      -0.01654675      -0.04559515      -0.00043988      -0.29657233       0.06802415      -0.00176801
C        1.20854121       1.44889700      -0.00225192      -0.01371982      -0.03720091       0.00356585      -0.15426015       0.00526939      -0.00058721
H        2.30911124       1.57172943      -0.00455855      -0.01005254       0.01267933       0.00539136      -0.09175433      -0.43897454       0.00357380
Br      -1.19461109      -0.08369722      -0.01117326      -0.00399999       0.07590633      -0.00182799       0.09078018      -0.08774947      -0.00014502
Br       3.71973493      -0.59504586       0.03700731       0.01281030       0.04421895      -0.00319813       0.43466812      -0.08032716       0.00373281
H        1.14791629      -0.55260673      -0.88794892       0.01038675      -0.01559011      -0.02714514       0.00914215       0.11643484       0.09573776
H        1.13360852      -0.54831489       0.89483117       0.00936915      -0.01447307       0.02866253       0.02220535       0.11718143      -0.09711445
C        0.71308849       2.10361484       1.20825408       0.01282680      -0.02728549      -0.03399327       0.01971234       0.10329116       0.00938948
N        0.35958464       2.61266789       2.20417558      -0.00373170       0.01703339       0.03405402      -0.02987603       0.04459252       0.02630640
C        0.70757019       2.10227652      -1.21135459      -0.00268168      -0.01747603       0.01350522       0.02408027       0.10673563      -0.01080637
N        0.35090937       2.61085503      -2.20637196       0.00533948       0.00778274      -0.01857455      -0.02812556       0.04552205      -0.02831918
11
Properties=species:S:1:pos:R:3:mp2_forces:R:3:forces:R:3 R1=H R2=H R3=CN R4=CN lg=Br nu=Br rxn-id=93 mp2_energy=-147186.52730647416 energy=-147186.24462224697 free_energy=-147186.52730647416 pbc="F F F"
C        0.82761632      -0.04498661      -0.00018661      -0.01654675      -0.04559515      -0.00043988      -1.03858084       0.07835750      -0.00820367
C        1.23357144       1.44828238      -0.00214353      -0.01371982      -0.03720091       0.00356585      -0.25052527      -0.02569984      -0.00065599
H        2.32431059       1.64589259      -0.00506168      -0.01005254       0.01267933       0.00539136      -0.07537918      -0.49857561       0.00348789
Br      -1.21068683      -0.07094497      -0.01116053      -0.00399999       0.07590633      -0.00182799       0.46269075      -0.07387250       0.00101124
Br       3.65020500      -0.58382834       0.03621971       0.01281030       0.04421895      -0.00319813       0.64641021      -0.14347621       0.00672772
H        1.14607297      -0.57233595      -0.90431633       0.01038675      -0.01559011      -0.02714514       0.10370158       0.16485412       0.19458618
H        1.13001908      -0.56800943       0.91149676       0.00936915      -0.01447307       0.02866253       0.12063062       0.16444756      -0.19317078
C        0.70970608       2.08650047       1.20638032       0.01282680      -0.02728549      -0.03399327       0.06160007       0.14298620       0.01016890
N        0.36446815       2.60667170       2.19963283      -0.00373170       0.01703339       0.03405402      -0.04902183       0.02083688       0.02542369
C        0.70370027       2.08455414      -1.20924506      -0.00268168      -0.01747603       0.01350522       0.06587568       0.14929502      -0.01242498
N        0.35572301       2.60472900      -2.20155600       0.00533948       0.00778274      -0.01857455      -0.04740178       0.02084688      -0.02695019
11
Properties=species:S:1:pos:R:3:mp2_forces:R:3:forces:R:3 R1=H R2=H R3=CN R4=CN lg=Br nu=Br rxn-id=93 mp2_energy=-147186.52730647416 energy=-147186.03950256435 free_energy=-147186.52730647416 pbc="F F F"
C        0.90047348      -0.05088511       0.00041706      -0.01654675      -0.04559515      -0.00043988      -1.94934367       0.09828459      -0.01670065
C        1.25081785       1.44963343      -0.00208009      -0.01371982      -0.03720091       0.00356585      -0.21887592      -0.04803286      -0.00035632
H        2.33015376       1.68103718      -0.00528423      -0.01005254       0.01267933       0.00539136      -0.02118597      -0.42154223       0.00294847
Br      -1.24164918      -0.06566061      -0.01123825      -0.00399999       0.07590633      -0.00182799       0.80266803      -0.04492002       0.00276732
Br       3.60416691      -0.57451112       0.03560574       0.01281030       0.04421895      -0.00319813       0.70756588      -0.16513980       0.00772416
H        1.13890199      -0.58349882      -0.91747723       0.01038675      -0.01559011      -0.02714514       0.29573412       0.14134465       0.19154685
H        1.12147305      -0.57912289       0.92466196       0.00936915      -0.01447307       0.02866253       0.31235091       0.14026592      -0.18515401
C        0.70540085       2.07674498       1.20578543       0.01282680      -0.02728549      -0.03399327       0.08080597       0.14003884      -0.00373340
N        0.36733754       2.60520167       2.19747777      -0.00373170       0.01703339       0.03405402      -0.04812873       0.00680504       0.01926844
C        0.69909377       2.07438162      -1.20860075      -0.00268168      -0.01747603       0.01350522       0.08562673       0.14573987       0.00371524
N        0.35853605       2.60320465      -2.19920753       0.00533948       0.00778274      -0.01857455      -0.04721735       0.00715601      -0.02202612
11
Properties=species:S:1:pos:R:3:mp2_forces:R:3:forces:R:3 R1=H R2=H R3=CN R4=CN lg=Br nu=Br rxn-id=93 mp2_energy=-147186.52730647416 energy=-147185.84209186566 free_energy=-147186.52730647416 pbc="F F F"
C        0.96694513      -0.05410402       0.00099813      -0.01654675      -0.04559515      -0.00043988      -2.10755833       0.11551637      -0.01888288
C        1.25843977       1.45137231      -0.00207018      -0.01371982      -0.03720091       0.00356585      -0.12202656      -0.04360382       0.00018076
H        2.33081428       1.69576815      -0.00536663      -0.01005254       0.01267933       0.00539136       0.01261024      -0.31564659       0.00245809
Br      -1.26874872      -0.06427122      -0.01133483      -0.00399999       0.07590633      -0.00182799       0.74597360      -0.02267482       0.00298332
Br       3.58004124      -0.56933401       0.03529316       0.01281030       0.04421895      -0.00319813       0.60749488      -0.14676492       0.00650313
H        1.12876350      -0.58836758      -0.92406318       0.01038675      -0.01559011      -0.02714514       0.39459933       0.08460487       0.12264974
H        1.11077398      -0.58393948       0.93106060       0.00936915      -0.01447307       0.02866253       0.40716394       0.08360987      -0.11378247
C        0.70259169       2.07191330       1.20582786       0.01282680      -0.02728549      -0.03399327       0.06670600       0.11694230      -0.00794944
N        0.36886993       2.60507984       2.19673129      -0.00373170       0.01703339       0.03405402      -0.03830865       0.00312188       0.01368572
C        0.69615718       2.06932517      -1.20862121      -0.00268168      -0.01747603       0.01350522       0.07070635       0.12177318       0.00772436
N        0.36005808       2.60308252      -2.19839511       0.00533948       0.00778274      -0.01857455      -0.03736082       0.00312166      -0.01557034
11
Properties=species:S:1:pos:R:3:mp2_forces:R:3:forces:R:3 R1=H R2=H R3=CN R4=CN lg=Br nu=Br rxn-id=93 mp2_energy=-147186.52730647416 energy=-147185.6667466632 free_energy=-147186.52730647416 pbc="F F F"
C        1.03629123      -0.05788929       0.00163199      -0.01654675      -0.04559515      -0.00043988      -1.64422996       0.11244541      -0.01529560
C        1.26253002       1.45284123      -0.00207512      -0.01371982      -0.03720091       0.00356585      -0.04047564      -0.01976660       0.00029801
H        2.33037197       1.70643481      -0.00542975      -0.01005254       0.01267933       0.00539136       0.02284405      -0.20035782       0.00191984
Br      -1.29299075      -0.06366199      -0.01143386      -0.00399999       0.07590633      -0.00182799       0.49357709      -0.00870859       0.00212820
Br       3.56005173      -0.56490540       0.03503025       0.01281030       0.04421895      -0.00319813       0.42405957      -0.10763477       0.00413988
H        1.11571795      -0.59115817      -0.92809094       0.01038675      -0.01559011      -0.02714514       0.35137097       0.02625246       0.04309713
H        1.09732575      -0.58668336       0.93482573       0.00936915      -0.01447307       0.02866253       0.35897537       0.02575266      -0.03484680
C        0.70035400       2.06806437       1.20604965       0.01282680      -0.02728549      -0.03399327       0.04151910       0.08121630      -0.00749880
N        0.37002556       2.60508852       2.19617644      -0.00373170       0.01703339       0.03405402      -0.02653133       0.00325025       0.00849105
C        0.69381849       2.06530013      -1.20883415      -0.00268168      -0.01747603       0.01350522       0.04449762       0.08437116       0.00726049
N        0.36121011       2.60309415      -2.19779036       0.00533948       0.00778274      -0.01857455      -0.02560684       0.00317953      -0.00969339
11
Properties=species:S:1:pos:R:3:mp2_forces:R:3:forces:R:3 R1=H R2=H R3=CN R4=CN lg=Br nu=Br rxn-id=93 mp2_energy=-147186.52730647416 energy=-147185.5518815656 free_energy=-147186.52730647416 pbc="F F F"
C        1.10901246      -0.06288430       0.00232572      -0.01654675      -0.04559515      -0.00043988      -0.78927686       0.06869889      -0.00744101
C        1.26439623       1.45373837      -0.00208593      -0.01371982      -0.03720091       0.00356585      -0.00495164       0.00116833       0.00012177
H        2.32934645       1.71566171      -0.00549047      -0.01005254       0.01267933       0.00539136       0.01479780      -0.08349333       0.00124751
Br      -1.31441758      -0.06346791      -0.01152874      -0.00399999       0.07590633      -0.00182799       0.21445742      -0.00290329       0.00094815
Br       3.54129825      -0.56066616       0.03478146       0.01281030       0.04421895      -0.00319813       0.20074070      -0.05713276       0.00120387
H        1.10008751      -0.59231314      -0.92996754       0.01038675      -0.01559011      -0.02714514       0.17751519      -0.00545238      -0.00468779
H        1.08137751      -0.58779756       0.93637613       0.00936915      -0.01447307       0.02866253       0.18066839      -0.00537112       0.00943644
C        0.69846207       2.06448164       1.20633983       0.01282680      -0.02728549      -0.03399327       0.01514310       0.03723980      -0.00397839
N        0.37106305       2.60510148       2.19565278      -0.00373170       0.01703339       0.03405402      -0.01347926       0.00442615       0.00250269
C        0.69183331       2.06156007      -1.20912025      -0.00268168      -0.01747603       0.01350522       0.01695591       0.03844880       0.00372589
N        0.36224681       2.60311079      -2.19722312       0.00533948       0.00778274      -0.01857455      -0.01257075       0.00437090      -0.00307913
11
Properties=species:S:1:pos:R:3:mp2_forces:R:3:forces:R:3 R1=H R2=H R3=CN R4=CN lg=Br nu=Br rxn-id=93 mp2_energy=-147186.52730647416 energy=-147185.52243471448 free_energy=-147186.52730647416 pbc="F F F"
C        1.18017640      -0.06916239       0.00303106      -0.01654675      -0.04559515      -0.00043988       0.13302056      -0.01477667       0.00170690
C        1.26498414       1.45366242      -0.00209121      -0.01371982      -0.03720091       0.00356585       0.00346214      -0.00117517       0.00008143
H        2.32799202       1.72393083      -0.00555322      -0.01005254       0.01267933       0.00539136      -0.00279737       0.02424177       0.00042126
Br      -1.33296409      -0.06361177      -0.01161537      -0.00399999       0.07590633      -0.00182799      -0.02763574      -0.00546418      -0.00018192
Br       3.52320569      -0.55655413       0.03453948       0.01281030       0.04421895      -0.00319813      -0.03809539      -0.00292357      -0.00198943
H        1.08389220      -0.59179622      -0.92946120       0.01038675      -0.01559011      -0.02714514      -0.03057555       0.00309702       0.00506794
H        1.06494374      -0.58724993       0.93552057       0.00936915      -0.01447307       0.02866253      -0.03036693       0.00356765      -0.00481374
C        0.69698998       2.06114293       1.20661465       0.01282680      -0.02728549      -0.03399327      -0.00335067      -0.00634705      -0.00058118
N        0.37201251       2.60503461       2.19511395      -0.00373170       0.01703339       0.03405402      -0.00098524       0.00336756      -0.00484238
C        0.69027448       2.05808155      -1.20939265      -0.00268168      -0.01747603       0.01350522      -0.00266787      -0.00691200       0.00033488
N        0.36319899       2.60304708      -2.19664617       0.00533948       0.00778274      -0.01857455      -0.00000794       0.00332463       0.00479623
11
Properties=species:S:1:pos:R:3:mp2_forces:R:3:forces:R:3 R1=H R2=H R3=CN R4=CN lg=Br nu=Br rxn-id=93 mp2_energy=-147186.52730647416 energy=-147185.56856107124 free_energy=-147186.52730647416 pbc="F F F"
C        1.24721530      -0.07717877       0.00372523      -0.01654675      -0.04559515      -0.00043988       0.88145931      -0.10644955       0.00945702
C        1.26626595       1.45225061      -0.00207056      -0.01371982      -0.03720091       0.00356585       0.01865395      -0.01831367       0.00034015
H        2.32668505       1.73227919      -0.00563135      -0.01005254       0.01267933       0.00539136      -0.01768203       0.11796567      -0.00047151
Br      -1.35181026      -0.06426564      -0.01170825      -0.00399999       0.07590633      -0.00182799      -0.23959465      -0.01331031      -0.00123156
Br       3.50161498      -0.55193038       0.03424444       0.01281030       0.04421895      -0.00319813      -0.28353379       0.04959319      -0.00532526
H        1.07058201      -0.58938583      -0.92576760       0.01038675      -0.01559011      -0.02714514      -0.17735274       0.03203081       0.04972617
H        1.05146534      -0.58482014       0.93152041       0.00936915      -0.01447307       0.02866253      -0.17889982       0.03269310      -0.05286115
C        0.69618451       2.05775250       1.20672482       0.01282680      -0.02728549      -0.03399327      -0.01177047      -0.04455649       0.00047529
N        0.37295817       2.60463045       2.19434654      -0.00373170       0.01703339       0.03405402       0.00980416      -0.00145959      -0.01378261
C        0.68938503       2.05455832      -1.20948670      -0.00268168      -0.01747603       0.01350522      -0.01204920      -0.04656992      -0.00057254
N        0.36415999       2.60263468      -2.19583711       0.00533948       0.00778274      -0.01857455       0.01096527      -0.00162325       0.01424600
11
Properties=species:S:1:pos:R:3:mp2_forces:R:3:forces:R:3 R1=H R2=H R3=CN R4=CN lg=Br nu=Br rxn-id=93 mp2_energy=-147186.52730647416 energy=-147185.6563083331 free_energy=-147186.52730647416 pbc="F F F"
C        1.30588610      -0.08545749       0.00434476      -0.01654675      -0.04559515      -0.00043988       1.24640147      -0.17678806       0.01346860
C        1.26892673       1.45035965      -0.00203067      -0.01371982      -0.03720091       0.00356585       0.05842150      -0.03989398       0.00091401
H        2.32565715       1.74089064      -0.00571734      -0.01005254       0.01267933       0.00539136      -0.02280163       0.19066779      -0.00127235
Br      -1.37096654      -0.06506988      -0.01180424      -0.00399999       0.07590633      -0.00182799      -0.39864109      -0.02173895      -0.00205013
Br       3.47955980      -0.54742804       0.03394028       0.01281030       0.04421895      -0.00319813      -0.46775448       0.08460722      -0.00788014
H        1.06070480      -0.58635856      -0.92067297       0.01038675      -0.01559011      -0.02714514      -0.21239563       0.06468661       0.10950352
H        1.04144714      -0.58177807       0.92617906       0.00936915      -0.01447307       0.02866253      -0.21467885       0.06538850      -0.11383900
C        0.69568568       2.05433138       1.20673115       0.01282680      -0.02728549      -0.03399327      -0.01182183      -0.07268134      -0.00085181
N        0.37388910       2.60402278       2.19345855      -0.00373170       0.01703339       0.03405402       0.01731635      -0.00902618      -0.02259384
C        0.68880470       2.05100395      -1.20946675      -0.00268168      -0.01747603       0.01350522      -0.01275420      -0.07572542       0.00103938
N        0.36511140       2.60200863      -2.19490194       0.00533948       0.00778274      -0.01857455       0.01870838      -0.00949619       0.02356175
11
Properties=species:S:1:pos:R:3:mp2_forces:R:3:forces:R:3 R1=H R2=H R3=CN R4=CN lg=Br nu=Br rxn-id=93 mp2_energy=-147186.52730647416 energy=-147185.7548511589 free_energy=-147186.52730647416 pbc="F F F"
C        1.35881031      -0.09374877       0.00490851      -0.01654675      -0.04559515      -0.00043988       1.19573428      -0.18864176       0.01304780
C        1.27371602       1.44810382      -0.00196795      -0.01371982      -0.03720091       0.00356585       0.11004904      -0.05108101       0.00149023
H        2.32504658       1.75130117      -0.00582547      -0.01005254       0.01267933       0.00539136      -0.01605005       0.24154762      -0.00187328
Br      -1.39289620      -0.06616356      -0.01191216      -0.00399999       0.07590633      -0.00182799      -0.48594876      -0.02817247      -0.00249747
Br       3.45690141      -0.54322424       0.03362685       0.01281030       0.04421895      -0.00319813      -0.51039788       0.08394622      -0.00846734
H        1.05373386      -0.58271319      -0.91392360       0.01038675      -0.01559011      -0.02714514      -0.16009236       0.08324629       0.15406328