18
Properties=species:S:1:pos:R:3:mp2_forces:R:3:forces:R:3 R1=CH3 R2=NO2 R3=CH3 R4=CN lg=F nu=Cl rxn-id=1997 mp2_energy=-27567.035362938197 energy=-27567.03536547457 free_energy=-27567.03536547457 pbc="F F F"
C        0.63173516      -0.07669152      -0.01063984       0.02724536      -0.05210935       0.05367158       0.02726750      -0.05208840       0.05367474
C        0.91107230       1.42704213       0.06137766       0.02859000      -0.03491651       0.01654699       0.02858302      -0.03491260       0.01652535
H        2.00679607       1.49029448      -0.00489915       0.03926264       0.05991958       0.00544530       0.03925413       0.05992137       0.00544711
F       -0.74804109      -0.27780952      -0.00776604      -0.01677017      -0.00278552       0.01187889      -0.01678144      -0.00279163       0.01187877
Cl       3.96289553       0.22553489       0.48342811       0.01177551       0.07794272      -0.05935694       0.01177676       0.07794317      -0.05935777
C        1.24940584      -0.70228972      -1.24427594       0.00035941      -0.00419430       0.00432747       0.00035850      -0.00419816       0.00433407
H        0.45525386      -0.88692607      -1.96995037      -0.02167744       0.03123132       0.01043085      -0.02167624       0.03123149       0.01043023
H        1.99854445      -0.03701746      -1.66493975       0.02609729      -0.02311320      -0.01090264       0.02609324      -0.02311524      -0.01090058
H        1.74973133      -1.63200550      -0.99148580      -0.05962123      -0.02742777      -0.00993870      -0.05962386      -0.02742197      -0.00993952
N        1.03675166      -0.83355330       1.25972231      -0.00526717      -0.01423330       0.03656052      -0.00527577      -0.01432534       0.03647856
O        0.99718866      -0.22428624       2.32076158      -0.01420884      -0.02853230       0.02656212      -0.01420550      -0.02850023       0.02662291
O        1.21242056      -2.03979590       1.14689302      -0.00707405      -0.02717133      -0.02072891      -0.00707154      -0.02712656      -0.02071561
C        0.42023106       2.23113229       1.27284001      -0.01124985       0.00079259       0.00365516      -0.01125041       0.00079707       0.00365348
H       -0.58359885       1.93002619       1.57566258      -0.02041266      -0.01521465      -0.02063898      -0.02041403      -0.01521485      -0.02063802
H        1.10131766       2.08877994       2.10589695      -0.01184493       0.00535179       0.01104164      -0.01184290       0.00534980       0.01104493
H        0.40056842       3.29032956       1.00669949      -0.00726512       0.01243538      -0.00604812      -0.00726407       0.01243356      -0.00604772
C        0.30045189       1.98582781      -1.14814259      -0.00911727       0.03973340      -0.03572751      -0.00911821       0.03972968      -0.03568874
N       -0.23510886       2.46181748      -2.07929398       0.05117852       0.00229144      -0.01677872       0.05119082       0.00228884      -0.01680218
18
Properties=species:S:1:pos:R:3:mp2_forces:R:3:forces:R:3 R1=CH3 R2=NO2 R3=CH3 R4=CN lg=F nu=Cl rxn-id=1997 mp2_energy=-27567.035362938197 energy=-27567.09437294733 free_energy=-27567.03536547457 pbc="F F F"
C        0.62663181      -0.08953706       0.00864168       0.02724536      -0.05210935       0.05367158      -0.00256345      -0.00486326       0.00315541
C        0.91219594       1.41045130       0.07103068       0.02859000      -0.03491651       0.01654699      -0.00021584      -0.00518621       0.00415156
H        2.01218626       1.48513890       0.01763786       0.03926264       0.05991958       0.00544530       0.00130590      -0.00681474       0.01346121
F       -0.75386756      -0.28322827       0.01638163      -0.01677017      -0.00278552       0.01187889      -0.00160505      -0.00634779       0.01099508
Cl       4.06151991       0.51764447       0.30366328       0.01177551       0.07794272      -0.05935694       0.02520979       0.05178933      -0.03576424
C        1.23385952      -0.72205053      -1.22258493       0.00035941      -0.00419430       0.00432747      -0.00801333      -0.00471997       0.00221253
H        0.46952763      -0.74622502      -2.00215662      -0.02167744       0.03123132       0.01043085       0.01137995       0.05925781      -0.01509988
H        2.09736880      -0.14452115      -1.54766713       0.02609729      -0.02311320      -0.01090264       0.02891188      -0.04139696       0.04231645
H        1.57036926      -1.73068748      -1.00014116      -0.05962123      -0.02742777      -0.00993870      -0.07282509      -0.02753474      -0.01808019
N        1.02667087      -0.85907493       1.27580177      -0.00526717      -0.01423330       0.03656052       0.00882769      -0.00179212       0.00155384
O        1.04732708      -0.25398990       2.33930048      -0.01420884      -0.02853230       0.02656212       0.02893992       0.00246135      -0.00120280
O        1.14373037      -2.07375738       1.15601676      -0.00707405      -0.02717133      -0.02072891       0.00187323      -0.00269475       0.00580965
C        0.40087406       2.21625452       1.27352798      -0.01124985       0.00079259       0.00365516      -0.01109092      -0.00237877      -0.00077624
H       -0.63054402       1.95841325       1.51655817      -0.02041266      -0.01521465      -0.02063898      -0.01559057       0.00243840      -0.01360443
H        1.03110050       2.02607786       2.13607096      -0.01184493       0.00535179       0.01104164      -0.02268666      -0.00313871       0.00807637
H        0.45138828       3.27920708       1.02685691      -0.00726512       0.01243538      -0.00604812      -0.00336673      -0.00276004      -0.00153315
C        0.32703725       1.97294902      -1.15183591      -0.00911727       0.03973340      -0.03572751       0.01143313      -0.00367506      -0.00076116
N       -0.15976031       2.45734487      -2.10521416       0.05117852       0.00229144      -0.01677872       0.02007614      -0.00264378      -0.00491000
18
Properties=species:S:1:pos:R:3:mp2_forces:R:3:forces:R:3 R1=CH3 R2=NO2 R3=CH3 R4=CN lg=F nu=Cl rxn-id=1997 mp2_energy=-27567.035362938197 energy=-27567.073749220337 free_energy=-27567.03536547457 pbc="F F F"
C        0.63135352      -0.08410165       0.00106975       0.02724536      -0.05210935       0.05367158      -0.00413120      -0.00572640       0.00323493
C        0.90826735       1.41819978       0.05644908       0.02859000      -0.03491651       0.01654699      -0.00136640      -0.00650599       0.00530253
H        2.00477984       1.50091652      -0.01706860       0.03926264       0.05991958       0.00544530       0.00084513      -0.01047302       0.01554044
F       -0.74930660      -0.28048857      -0.00076027      -0.01677017      -0.00278552       0.01187889      -0.00309297      -0.00848926       0.01011507
Cl       4.01936635       0.46346789       0.39729727       0.01177551       0.07794272      -0.05935694       0.02674731       0.05248911      -0.03804347
C        1.24753389      -0.71674959      -1.22668164       0.00035941      -0.00419430       0.00432747      -0.00869626      -0.00439495       0.00166925
H        0.47927917      -0.77256254      -2.00018780      -0.02167744       0.03123132       0.01043085       0.00358419       0.05304031      -0.01753355
H        2.09214840      -0.12166687      -1.56674740       0.02609729      -0.02311320      -0.01090264       0.02876003      -0.03317683       0.03746308
H        1.61528034      -1.71122157      -0.99283308      -0.05962123      -0.02742777      -0.00993870      -0.06461029      -0.03113997      -0.01426280
N        1.01886894      -0.85458552       1.27159101      -0.00526717      -0.01423330       0.03656052       0.00769011      -0.00205236       0.00183482
O        1.03231480      -0.25318122       2.33668811      -0.01420884      -0.02853230       0.02656212       0.02341653       0.00285002      -0.00068001
O        1.12756169      -2.06966949       1.14863795      -0.00707405      -0.02717133      -0.02072891       0.00588373      -0.00278895       0.00652777
C        0.42288883       2.21780016       1.27235014      -0.01124985       0.00079259       0.00365516      -0.01106695      -0.00188596      -0.00054288
H       -0.59522732       1.94371349       1.55249728      -0.02041266      -0.01521465      -0.02063898      -0.01631572       0.00523974      -0.01298908
H        1.08740967       2.03607687       2.11096124      -0.01184493       0.00535179       0.01104164      -0.02286265      -0.00286317       0.00856111
H        0.44780248       3.28119334       1.02450815      -0.00726512       0.01243538      -0.00604812      -0.00114225      -0.00256765      -0.00285724
C        0.29313909       1.97354183      -1.15496686      -0.00911727       0.03973340      -0.03572751       0.01284063      -0.00336984      -0.00006188
N       -0.21584480       2.44972666      -2.10091608       0.05117852       0.00229144      -0.01677872       0.02351701       0.00181517      -0.00327809
18
Properties=species:S:1:pos:R:3:mp2_forces:R:3:forces:R:3 R1=CH3 R2=NO2 R3=CH3 R4=CN lg=F nu=Cl rxn-id=1997 mp2_energy=-27567.035362938197 energy=-27567.04908317057 free_energy=-27567.03536547457 pbc="F F F"
C        0.63794040      -0.07700064      -0.00284869       0.02724536      -0.05210935       0.05367158      -0.00663691      -0.00624675       0.00279819
C        0.90994109       1.42666948       0.05029885       0.02859000      -0.03491651       0.01654699      -0.00269051      -0.00760851       0.00587914
H        2.00344904       1.51493070      -0.03513722       0.03926264       0.05991958       0.00544530       0.00012966      -0.01474624       0.01696522
F       -0.74374319      -0.27142156      -0.01136310      -0.01677017      -0.00278552       0.01187889      -0.00549996      -0.00925415       0.00797895
Cl       3.98042577       0.38280562       0.44486284       0.01177551       0.07794272      -0.05935694       0.02943358       0.05054922      -0.03916629
C        1.25835471      -0.71062943      -1.22981085       0.00035941      -0.00419430       0.00432747      -0.00869325      -0.00402369       0.00164561
H        0.47314429      -0.83973209      -1.97704089      -0.02167744       0.03123132       0.01043085      -0.00049858       0.03986695      -0.01597907
H        2.05340262      -0.07825744      -1.61687117       0.02609729      -0.02311320      -0.01090264       0.02247978      -0.02346478       0.03064506
H        1.69850600      -1.66997635      -0.97661367      -0.05962123      -0.02742777      -0.00993870      -0.05022969      -0.02708988      -0.00895445
N        1.01296324      -0.85073945       1.26983862      -0.00526717      -0.01423330       0.03656052       0.00493663      -0.00240887       0.00141459
O        1.00155091      -0.25542262       2.33817121      -0.01420884      -0.02853230       0.02656212       0.01950829       0.00305565      -0.00123660
O        1.12957696      -2.06418370       1.14134434      -0.00707405      -0.02717133      -0.02072891       0.00574880      -0.00307864       0.00650796
C        0.43486567       2.22106028       1.27273866      -0.01124985       0.00079259       0.00365516      -0.01042892      -0.00158749      -0.00011858
H       -0.57732059       1.93866090       1.56659321      -0.02041266      -0.01521465      -0.02063898      -0.01633489       0.00800442      -0.01125074
H        1.11222952       2.04091894       2.10144128      -0.01184493       0.00535179       0.01104164      -0.02169381      -0.00317871       0.00862563
H        0.44818922       3.28519215       1.02728127      -0.00726512       0.01243538      -0.00604812       0.00158008      -0.00240284      -0.00370532
C        0.27784275       1.97833032      -1.15463976      -0.00911727       0.03973340      -0.03572751       0.01336731      -0.00238264       0.00030028
N       -0.24370277       2.44920443      -2.09635669       0.05117852       0.00229144      -0.01677872       0.02552240       0.00599696      -0.00234956
18
Properties=species:S:1:pos:R:3:mp2_forces:R:3:forces:R:3 R1=CH3 R2=NO2 R3=CH3 R4=CN lg=F nu=Cl rxn-id=1997 mp2_energy=-27567.035362938197 energy=-27567.035251912475 free_energy=-27567.03536547457 pbc="F F F"
C        0.64414344      -0.07128414      -0.00505334       0.02724536      -0.05210935       0.05367158      -0.01008425      -0.00764145       0.00214153
C        0.91220682       1.43371075       0.04554217       0.02859000      -0.03491651       0.01654699      -0.00477688      -0.00967643       0.00628746
H        2.00315794       1.52834788      -0.04898739       0.03926264       0.05991958       0.00544530      -0.00103634      -0.02087022       0.01888395
F       -0.73846066      -0.26365236      -0.01710340      -0.01677017      -0.00278552       0.01187889      -0.00862476      -0.01151856       0.00577484
Cl       3.95256735       0.33127972       0.48129233       0.01177551       0.07794272      -0.05935694       0.03431528       0.05179084      -0.04121897
C        1.26574931      -0.70614943      -1.23168067       0.00035941      -0.00419430       0.00432747      -0.00911160      -0.00435153       0.00168031
H        0.47303236      -0.87364649      -1.96303471      -0.02167744       0.03123132       0.01043085      -0.00167416       0.03094580      -0.01608131
H        2.03288587      -0.05628729      -1.64434894       0.02609729      -0.02311320      -0.01090264       0.01818762      -0.01778114       0.02811690
H        1.74296009      -1.64508606      -0.96987034      -0.05962123      -0.02742777      -0.00993870      -0.04183251      -0.02410978      -0.00518293
N        1.01048513      -0.84824266       1.26828856      -0.00526717      -0.01423330       0.03656052       0.00268362      -0.00246565       0.00112707
O        0.98972503      -0.25730256       2.33864552      -0.01420884      -0.02853230       0.02656212       0.01743433       0.00424046      -0.00186715
O        1.12430757      -2.06130775       1.13541670      -0.00707405      -0.02717133      -0.02072891       0.00698582      -0.00300057       0.00734284
C        0.44280738       2.22300506       1.27282170      -0.01124985       0.00079259       0.00365516      -0.01027939      -0.00160173      -0.00004673
H       -0.56377162       1.93096877       1.57666864      -0.02041266      -0.01521465      -0.02063898      -0.01703300       0.01109888      -0.00961832
H        1.13014752       2.04580327       2.09409540      -0.01184493       0.00535179       0.01104164      -0.02083056      -0.00381071       0.00814180
H        0.44405653       3.28770663       1.02983100      -0.00726512       0.01243538      -0.00604812       0.00422470      -0.00252156      -0.00534890
C        0.26666336       1.98012061      -1.15518656      -0.00911727       0.03973340      -0.03572751       0.01364956      -0.00121473       0.00071854
N       -0.26504777       2.44242559      -2.09544843       0.05117852       0.00229144      -0.01677872       0.02780251       0.01248808      -0.00085093
18
Properties=species:S:1:pos:R:3:mp2_forces:R:3:forces:R:3 R1=CH3 R2=NO2 R3=CH3 R4=CN lg=F nu=Cl rxn-id=1997 mp2_energy=-27567.035362938197 energy=-27567.01527830178 free_energy=-27567.03536547457 pbc="F F F"
C        0.65693255      -0.06106550      -0.00829304       0.02724536      -0.05210935       0.05367158      -0.01986176      -0.01160851       0.00060360
C        0.91844214       1.44652214       0.03688113       0.02859000      -0.03491651       0.01654699      -0.01084994      -0.01543973       0.00716371
H        2.00446459       1.55574335      -0.07445801       0.03926264       0.05991958       0.00544530      -0.00438094      -0.03871074       0.02374530
F       -0.72767140      -0.24783426      -0.02588971      -0.01677017      -0.00278552       0.01187889      -0.01741338      -0.01858065       0.00143557
Cl       3.90882319       0.26582122       0.53693643       0.01177551       0.07794272      -0.05935694       0.04670856       0.05548303      -0.04336009
C        1.27800395      -0.70087957      -1.23358633       0.00035941      -0.00419430       0.00432747      -0.01122256      -0.00444764       0.00162561
H        0.47585580      -0.91617167      -1.94161683      -0.02167744       0.03123132       0.01043085       0.00041759       0.01804101      -0.01961682
H        2.00900943      -0.03324979      -1.68121312       0.02609729      -0.02311320      -0.01090264       0.01042953      -0.00863638       0.02879898
H        1.79880657      -1.61327765      -0.96160775      -0.05962123      -0.02742777      -0.00993870      -0.03132642      -0.01657513       0.00068526
N        1.00576890      -0.84518732       1.26615661      -0.00526717      -0.01423330       0.03656052      -0.00102965      -0.00209643      -0.00005543
O        0.96715510      -0.26302899       2.34038256      -0.01420884      -0.02853230       0.02656212       0.01754913       0.00791095      -0.00395757
O        1.11225700      -2.05773204       1.12490020      -0.00707405      -0.02717133      -0.02072891       0.01249106      -0.00239797       0.00956774
C        0.45704134       2.22494091       1.27298142      -0.01124985       0.00079259       0.00365516      -0.01045750      -0.00145662      -0.00024370
H       -0.54010852       1.91543404       1.59047544      -0.02041266      -0.01521465      -0.02063898      -0.01864387       0.01867058      -0.00489565
H        1.15930360       2.05099884       2.08270013      -0.01184493       0.00535179       0.01104164      -0.01878456      -0.00449706       0.00583664
H        0.43833958       3.29088747       1.03718792      -0.00726512       0.01243538      -0.00604812       0.00937556      -0.00270706      -0.00990685
C        0.24812888       1.98200693      -1.15617615      -0.00911727       0.03973340      -0.03572751       0.01407300       0.00097326       0.00122727
N       -0.30293703       2.42648142      -2.09387265       0.05117852       0.00229144      -0.01677872       0.03292617       0.02607508       0.00134643
18
Properties=species:S:1:pos:R:3:mp2_forces:R:3:forces:R:3 R1=CH3 R2=NO2 R3=CH3 R4=CN lg=F nu=Cl rxn-id=1997 mp2_energy=-27567.035362938197 energy=-27566.990165070947 free_energy=-27567.03536547457 pbc="F F F"
C        0.68075681      -0.04688774      -0.00905528       0.02724536      -0.05210935       0.05367158      -0.04145390      -0.01812694      -0.00271426
C        0.93171576       1.46520331       0.02830408       0.02859000      -0.03491651       0.01654699      -0.02393860      -0.02594140       0.00736589
H        2.01001413       1.60249348      -0.10280537       0.03926264       0.05991958       0.00544530      -0.00999788      -0.07973108       0.03317813
F       -0.70688212      -0.22481376      -0.02781467      -0.01677017      -0.00278552       0.01187889      -0.03726201      -0.03187692      -0.00619922
Cl       3.85374989       0.19967311       0.58777646       0.01177551       0.07794272      -0.05935694       0.07641826       0.05934062      -0.04037473
C        1.29141201      -0.69577431      -1.23534277       0.00035941      -0.00419430       0.00432747      -0.01771373      -0.00313469       0.00150543
H        0.47515757      -0.93954592      -1.91725791      -0.02167744       0.03123132       0.01043085       0.00789548       0.00387569      -0.03456884
H        1.99558126      -0.02290760      -1.71669883       0.02609729      -0.02311320      -0.01090264       0.00189304       0.00500188       0.04095972
H        1.83730571      -1.59286023      -0.96156016      -0.05962123      -0.02742777      -0.00993870      -0.02505198      -0.00351451       0.01297711
N        1.00664234      -0.84253717       1.26624436      -0.00526717      -0.01423330       0.03656052      -0.00462179       0.00077869      -0.00442832
O        0.94490919      -0.27263260       2.34529436      -0.01420884      -0.02853230       0.02656212       0.02664358       0.01586860      -0.00882937
O        1.09758381      -2.05460434       1.11318955      -0.00707405      -0.02717133      -0.02072891       0.02737809      -0.00000059       0.01278640
C        0.46955926       2.22645233       1.27329407      -0.01124985       0.00079259       0.00365516      -0.01184518      -0.00050258      -0.00119417
H       -0.51810586       1.89300407       1.59551727      -0.02041266      -0.01521465      -0.02063898      -0.02173732       0.03124863       0.00493946
H        1.18138921       2.05539389       2.07593109      -0.01184493       0.00535179       0.01104164      -0.01473629      -0.00533595      -0.00052360
H        0.42760475       3.29403458       1.04970258      -0.00726512       0.01243538      -0.00604812       0.01582802      -0.00165531      -0.01628126
C        0.23145808       1.98110869      -1.15753709      -0.00911727       0.03973340      -0.03572751       0.01427731       0.00629364      -0.00036876
N       -0.34223616       2.39560975      -2.09529349       0.05117852       0.00229144      -0.01677872       0.03802490       0.04741221       0.00177036
18
Properties=species:S:1:pos:R:3:mp2_forces:R:3:forces:R:3 R1=CH3 R2=NO2 R3=CH3 R4=CN lg=F nu=Cl rxn-id=1997 mp2_energy=-27567.035362938197 energy=-27566.943117593404 free_energy=-27567.03536547457 pbc="F F F"
C        0.72093296      -0.02934571      -0.00632900       0.02724536      -0.05210935       0.05367158      -0.08487384      -0.02493814      -0.01182134
C        0.95495623       1.49028719       0.02136866       0.02859000      -0.03491651       0.01654699      -0.04799244      -0.03918928       0.00454866
H        2.01980827       1.67949830      -0.13455608       0.03926264       0.05991958       0.00544530      -0.01371481      -0.15997274       0.05015415
F       -0.67078317      -0.19389261      -0.02136576      -0.01677017      -0.00278552       0.01187889      -0.07733898      -0.05283880      -0.02260561
Cl       3.77979580       0.14098180       0.62655937       0.01177551       0.07794272      -0.05935694       0.14319610       0.05679301      -0.02341075
C        1.30838033      -0.69259513      -1.23691776       0.00035941      -0.00419430       0.00432747      -0.03476484       0.00102953       0.00022296
H        0.46725783      -0.94344331      -1.88372687      -0.02167744       0.03123132       0.01043085       0.02116926      -0.01990198      -0.07689959
H        1.99317268      -0.02738549      -1.75677786       0.02609729      -0.02311320      -0.01090264      -0.00907900       0.02839063       0.07258290
H        1.86184284      -1.58906621      -0.97441433      -0.05962123      -0.02742777      -0.00993870      -0.02657260       0.02155769       0.04362671
N        1.01151135      -0.84321450       1.27061401      -0.00526717      -0.01423330       0.03656052      -0.00455658       0.00868778      -0.01327324
O        0.92013591      -0.28782705       2.35393392      -0.01420884      -0.02853230       0.02656212       0.05181777       0.02681666      -0.01419304
O        1.07121154      -2.05454827       1.10097936      -0.00707405      -0.02717133      -0.02072891       0.05861843       0.00521342       0.01686053
C        0.48062260       2.22702158       1.27444812      -0.01124985       0.00079259       0.00365516      -0.01535431       0.00342056      -0.00297120
H       -0.49763849       1.86289380       1.59029613      -0.02041266      -0.01521465      -0.02063898      -0.02689864       0.05011941       0.02182562
H        1.19485116       2.06071956       2.07679181      -0.01184493       0.00535179       0.01104164      -0.00716572      -0.00752403      -0.01336225
H        0.41189108       3.29570809       1.06537262      -0.00726512       0.01243538      -0.00604812       0.02137891       0.00392395      -0.01902597
C        0.21799538       1.97497953      -1.15716253      -0.00911727       0.03973340      -0.03572751       0.01559621       0.02468042      -0.00817637
N       -0.37832866       2.34963797      -2.09722556       0.05117852       0.00229144      -0.01677872       0.03653509       0.07373191      -0.00408216
18
Properties=species:S:1:pos:R:3:mp2_forces:R:3:forces:R:3 R1=CH3 R2=NO2 R3=CH3 R4=CN lg=F nu=Cl rxn-id=1997 mp2_energy=-27567.035362938197 energy=-27566.851857437676 free_energy=-27567.03536547457 pbc="F F F"
C        0.77296057      -0.01403804       0.00094627       0.02724536      -0.05210935       0.05367158      -0.16602933      -0.02696524      -0.03783925
C        0.98441283       1.51432065       0.01860944       0.02859000      -0.03491651       0.01654699      -0.07966614      -0.04175715      -0.00413734
H        2.02828086       1.77752472      -0.16514888       0.03926264       0.05991958       0.00544530      -0.00209346      -0.26138775       0.07158286
F       -0.62337443      -0.16143833      -0.00746623      -0.01677017      -0.00278552       0.01187889      -0.13499938      -0.08385444      -0.05234110
Cl       3.69219373       0.10619879       0.64083188       0.01177551       0.07794272      -0.05935694       0.27256109       0.04315572       0.01810296
C        1.32964050      -0.69325094      -1.23703696       0.00035941      -0.00419430       0.00432747      -0.07329764       0.00615747      -0.00523157
H        0.45412036      -0.93153047      -1.83634955      -0.02167744       0.03123132       0.01043085       0.03449979      -0.06737167      -0.16673963
H        1.99841763      -0.04471372      -1.80148455       0.02609729      -0.02311320      -0.01090264      -0.02552136       0.05928523       0.12370344
H        1.87833083      -1.60214941      -1.00114880      -0.05962123      -0.02742777      -0.00993870      -0.03829215       0.05942660       0.09650223
N        1.01432870      -0.84853275       1.27870708      -0.00526717      -0.01423330       0.03656052       0.00757832       0.01300915      -0.01380852
O        0.88852267      -0.30426983       2.36261188      -0.01420884      -0.02853230       0.02656212       0.09066451       0.03113498      -0.00990299
O        1.03516154      -2.05775302       1.09058962      -0.00707405      -0.02717133      -0.02072891       0.10169545       0.00718437       0.02507439
C        0.48995001       2.22491209       1.27627477      -0.01124985       0.00079259       0.00365516      -0.02006364       0.01410934      -0.00414181
H       -0.48125331       1.83214174       1.57685324      -0.02041266      -0.01521465      -0.02063898      -0.03224469       0.07279434       0.04373151
H        1.19910210       2.06529560       2.08502887      -0.01184493       0.00535179       0.01104164       0.00152297      -0.00915724      -0.02715353
H        0.39870822       3.29329766       1.07706919      -0.00726512       0.01243538      -0.00604812       0.02041430       0.01705751      -0.01095917
C        0.20859976       1.95989988      -1.15219683      -0.00911727       0.03973340      -0.03572751       0.02568899       0.07862449      -0.02591717
N       -0.40048691       2.30449492      -2.09480221       0.05117852       0.00229144      -0.01677872       0.01758235       0.08855430      -0.02052531
18
Properties=species:S:1:pos:R:3:mp2_forces:R:3:forces:R:3 R1=CH3 R2=NO2 R3=CH3 R4=CN lg=F nu=Cl rxn-id=1997 mp2_energy=-27567.035362938197 energy=-27566.70150296979 free_energy=-27567.03536547457 pbc="F F F"
C        0.83102000      -0.00458863       0.01421269       0.02724536      -0.05210935       0.05367158      -0.36934624      -0.02526505      -0.09373537
C        1.01233422       1.52892973       0.02009839       0.02859000      -0.03491651       0.01654699      -0.10895467      -0.02284257      -0.01444872
H        2.02905683       1.86905549      -0.19010284       0.03926264       0.05991958       0.00544530       0.03391117      -0.32662033       0.08495877
F       -0.57599587      -0.13196887       0.01088800      -0.01677017      -0.00278552       0.01187889      -0.14522297      -0.13012515      -0.08548734
Cl       3.59679388       0.09108142       0.63434624       0.01177551       0.07794272      -0.05935694       0.48050999       0.02425235       0.08444821
C        1.35525825      -0.69540919      -1.23518044       0.00035941      -0.00419430       0.00432747      -0.14381884       0.01036592      -0.00826879
H        0.44194803      -0.90800902      -1.77782384      -0.02167744       0.03123132       0.01043085       0.04821574      -0.14158134      -0.30252196
H        2.00721787      -0.06545433      -1.84490415       0.02609729      -0.02311320      -0.01090264      -0.04439415       0.08513020       0.17763609
H        1.89179067      -1.62292694      -1.03495067      -0.05962123      -0.02742777      -0.00993870      -0.05252116       0.09410791       0.14968809
N        1.01170857      -0.85305947       1.28351650      -0.00526717      -0.01423330       0.03656052       0.04130218      -0.00467460       0.01939535
O        0.85688936      -0.31518271       2.36607761      -0.01420884      -0.02853230       0.02656212       0.12478315       0.02351400       0.00948633
O        0.99955120      -2.06025443       1.08181245      -0.00707405      -0.02717133      -0.02072891       0.13799397      -0.00083665       0.03898198
C        0.49691058       2.21995682       1.27772230      -0.01124985       0.00079259       0.00365516      -0.02153537       0.03119718      -0.00422861
H       -0.47005168       1.80663316       1.56144267      -0.02041266      -0.01521465      -0.02063898      -0.03567417       0.09535384       0.06724568
H        1.19842803       2.06847948       2.09460419      -0.01184493       0.00535179       0.01104164       0.00515735      -0.00731881      -0.03128239
H        0.39152255       3.28731192       1.08092009      -0.00726512       0.01243538      -0.00604812       0.01200503       0.03151972       0.00321504