18
Properties=species:S:1:pos:R:3:mp2_forces:R:3:forces:R:3 R1=CN R2=CH3 R3=NH2 R4=CH3 lg=F nu=F rxn-id=1573 mp2_energy=-13716.58550651916 energy=-13716.58549441061 free_energy=-13716.58549441061 pbc="F F F"
C        0.59540501      -0.09728074      -0.05936665       0.03817176       0.00289400       0.01097855       0.03828159       0.00286474       0.01101820
C        0.84447317       1.44274512      -0.13608961      -0.00352215       0.00575122      -0.00579743      -0.00354596       0.00572744      -0.00579606
H        1.71130640       1.57297609      -0.79867289      -0.02977612       0.01211253      -0.02726990      -0.02976408       0.01212219      -0.02727499
F       -0.59415168      -0.40154439      -0.78809664      -0.00369248      -0.04725253       0.04620284      -0.00374533      -0.04724423       0.04617881
F        3.06752078       0.29555229       1.04643142      -0.00455722      -0.05055897       0.06187627      -0.00456972      -0.05055959       0.06187164
C        1.64116382      -0.82388100      -0.80212150       0.03687671       0.00050064      -0.01856590       0.03685020       0.00051298      -0.01853912
N        2.28902175      -1.45767508      -1.54963335       0.00513911      -0.03042491       0.01826628       0.00513265      -0.03041038       0.01824704
C        0.40631038      -0.65411510       1.33427142      -0.00608007       0.00188313      -0.00427486      -0.00606676       0.00190703      -0.00429489
H        1.33262843      -0.47004348       1.87465416       0.01856832      -0.04534765      -0.05335660       0.01856622      -0.04535483      -0.05335269
H       -0.43965704      -0.15590506       1.80851257       0.02866535       0.05347689       0.03197567       0.02865631       0.05347515       0.03198327
H        0.20525986      -1.72713504       1.26466543      -0.00391845       0.00174185      -0.04382143      -0.00392588       0.00172879      -0.04382173
N        1.12954737       1.96915928       1.19564731      -0.01044993       0.00330556      -0.00604449      -0.01044892       0.00330308      -0.00605640
H        1.34861673       2.95460525       1.07505986      -0.01445572       0.00291299      -0.00633405      -0.01446469       0.00291173      -0.00632413
H        2.02688758       1.47322184       1.40800037      -0.01759369       0.00511325       0.02035865      -0.01758237       0.00512026       0.02035580
C       -0.35331363       2.16125388      -0.74282718      -0.00392537       0.01641703      -0.00610391      -0.00390885       0.01641506      -0.00609324
H       -0.56503497       1.81385824      -1.75496150      -0.02079903       0.03032957      -0.00867523      -0.02080065       0.03032460      -0.00869433
H       -1.24252296       2.01511935      -0.12635764       0.01077204       0.01000838       0.00933460       0.01075696       0.01000651       0.00934387
H       -0.13320507       3.23309968      -0.77934335      -0.01942307       0.02713704      -0.01874907      -0.01942071       0.02714948      -0.01875104
18
Properties=species:S:1:pos:R:3:mp2_forces:R:3:forces:R:3 R1=CN R2=CH3 R3=NH2 R4=CH3 lg=F nu=F rxn-id=1573 mp2_energy=-13716.58550651916 energy=-13716.581893071247 free_energy=-13716.58549441061 pbc="F F F"
C        0.61372079      -0.09449996      -0.06211093       0.03817176       0.00289400       0.01097855      -0.00763109      -0.00196212      -0.00582055
C        0.85625158       1.44411247      -0.13947391      -0.00352215       0.00575122      -0.00579743      -0.00950705      -0.00136727      -0.00617651
H        1.71442062       1.58046998      -0.81697204      -0.02977612       0.01211253      -0.02726990      -0.01060545      -0.00083260      -0.00683645
F       -0.57741636      -0.41060968      -0.79157914      -0.00369248      -0.04725253       0.04620284      -0.00348576      -0.00478830      -0.00843647
F        3.04428159       0.25193735       1.06425969      -0.00455722      -0.05055897       0.06187627       0.01170772       0.01401826       0.02725456
C        1.66132077      -0.82325952      -0.80005189       0.03687671       0.00050064      -0.01856590      -0.00038931      -0.00277387       0.00354035
N        2.29241335      -1.46579585      -1.55473190       0.00513911      -0.03042491       0.01826628       0.02141676      -0.00781669       0.02588352
C        0.40309109      -0.65298423       1.32700675      -0.00608007       0.00188313      -0.00427486       0.00508832      -0.00207839      -0.00388606
H        1.32295979      -0.47885708       1.87516865       0.01856832      -0.04534765      -0.05335660       0.02690600      -0.02529209      -0.02934898
H       -0.44728489      -0.14560287       1.78651643       0.02866535       0.05347689       0.03197567       0.03254960       0.01938180       0.02333871
H        0.19401522      -1.72519192       1.24685193      -0.00391845       0.00174185      -0.04382143      -0.02506579       0.00359219      -0.00367507
N        1.13751143       1.97823250       1.18944735      -0.01044993       0.00330556      -0.00604449      -0.00807115      -0.00712378      -0.00414355
H        1.32015309       2.97283366       1.06969127      -0.01445572       0.00291299      -0.00633405       0.00337016      -0.00912731      -0.00053091
H        2.03926002       1.50367911       1.41390690      -0.01759369       0.00511325       0.02035865      -0.01150991      -0.01610935      -0.00193877
C       -0.35324813       2.15989942      -0.72983255      -0.00392537       0.01641703      -0.00610391      -0.00724396       0.00733941      -0.00301681
H       -0.59773148       1.78619552      -1.72487799      -0.02079903       0.03032957      -0.00867523      -0.01153272       0.01656392      -0.00548070
H       -1.21859859       2.03239725      -0.07930187       0.01077204       0.01000838       0.00933460      -0.00736269       0.01206768      -0.00294552
H       -0.13486396       3.23105497      -0.80414452      -0.01942307       0.02713704      -0.01874907       0.00136634       0.00630853       0.00221922
18
Properties=species:S:1:pos:R:3:mp2_forces:R:3:forces:R:3 R1=CN R2=CH3 R3=NH2 R4=CH3 lg=F nu=F rxn-id=1573 mp2_energy=-13716.58550651916 energy=-13716.574919910221 free_energy=-13716.58549441061 pbc="F F F"
C        0.61682536      -0.09393052      -0.05520136       0.03817176       0.00289400       0.01097855      -0.00998033      -0.00208024      -0.00749966
C        0.85910897       1.44451383      -0.13320193      -0.00352215       0.00575122      -0.00579743      -0.01017773      -0.00154671      -0.00763629
H        1.72196402       1.57931869      -0.80493792      -0.02977612       0.01211253      -0.02726990      -0.01243268      -0.00071753      -0.01022082
F       -0.57739875      -0.40985495      -0.78097099      -0.00369248      -0.04725253       0.04620284      -0.00563968      -0.00474095      -0.00953003
F        3.03440684       0.24152001       1.03016725      -0.00455722      -0.05055897       0.06187627       0.01763747       0.02175932       0.03620472
C        1.66060519      -0.81896284      -0.80148200       0.03687671       0.00050064      -0.01856590      -0.00306765      -0.00489624       0.00349338
N        2.27535779      -1.45540281      -1.57482602       0.00513911      -0.03042491       0.01826628       0.02551418      -0.01287399       0.03238514
C        0.40291928      -0.65338981       1.33346820      -0.00608007       0.00188313      -0.00427486       0.00483804      -0.00258861      -0.00574148
H        1.30986615      -0.46250650       1.89514921       0.01856832      -0.04534765      -0.05335660       0.03298184      -0.02833141      -0.03755552
H       -0.46487892      -0.16340505       1.77941871       0.02866535       0.05347689       0.03197567       0.03520026       0.02218907       0.02748015
H        0.21670555      -1.72978780       1.25388615      -0.00391845       0.00174185      -0.04382143      -0.02979619       0.00290130      -0.00710998
N        1.13629791       1.97998076       1.19620378      -0.01044993       0.00330556      -0.00604449      -0.00849461      -0.00820459      -0.00516697
H        1.31144729       2.97617792       1.07736406      -0.01445572       0.00291299      -0.00633405       0.00376504      -0.01030161      -0.00038430
H        2.04069608       1.51183623       1.41602846      -0.01759369       0.00511325       0.02035865      -0.01199967      -0.01828223      -0.00194560
C       -0.34623938       2.15785901      -0.73324839      -0.00392537       0.01641703      -0.00610391      -0.00812322       0.00818706      -0.00270938
H       -0.58539309       1.77634057      -1.72676696      -0.02079903       0.03032957      -0.00867523      -0.01367523       0.01965938      -0.00584275
H       -1.21510928       2.03538907      -0.08645997       0.01077204       0.01000838       0.00933460      -0.00806011       0.01270756      -0.00267205
H       -0.12692509       3.22831533      -0.81481803      -0.01942307       0.02713704      -0.01874907       0.00151028       0.00716043       0.00445145
18
Properties=species:S:1:pos:R:3:mp2_forces:R:3:forces:R:3 R1=CN R2=CH3 R3=NH2 R4=CH3 lg=F nu=F rxn-id=1573 mp2_energy=-13716.58550651916 energy=-13716.560181817893 free_energy=-13716.58549441061 pbc="F F F"
C        0.62630374      -0.09061012      -0.04788520       0.03817176       0.00289400       0.01097855      -0.01456438      -0.00365559      -0.00967552
C        0.86856029       1.44795396      -0.12534843      -0.00352215       0.00575122      -0.00579743      -0.01454651      -0.00424365      -0.01078801
H        1.73446119       1.58233212      -0.79291170      -0.02977612       0.01211253      -0.02726990      -0.01846160      -0.00361093      -0.01681986
F       -0.56865549      -0.40639963      -0.77536526      -0.00369248      -0.04725253       0.04620284      -0.01087899      -0.00398824      -0.01135418
F        3.01701583       0.22282530       0.98248963      -0.00455722      -0.05055897       0.06187627       0.02747279       0.03110128       0.04741183
C        1.66503223      -0.81587539      -0.79982076       0.03687671       0.00050064      -0.01856590      -0.00512949      -0.00604520       0.00462183
N        2.24715069      -1.45499119      -1.59639828       0.00513911      -0.03042491       0.01826628       0.04008462      -0.01260422       0.04227672
C        0.39759616      -0.65228398       1.33782936      -0.00608007       0.00188313      -0.00427486       0.00549526      -0.00176816      -0.00625136
H        1.27915163      -0.43584090       1.92664290       0.01856832      -0.04534765      -0.05335660       0.04225161      -0.02949475      -0.04447561
H       -0.49922393      -0.19157032       1.75757929       0.02866535       0.05347689       0.03197567       0.03993940       0.03040637       0.03241328
H        0.24735365      -1.73419186       1.25657161      -0.00391845       0.00174185      -0.04382143      -0.03310704       0.00309982      -0.00585080
N        1.14285600       1.98963105       1.20283847      -0.01044993       0.00330556      -0.00604449      -0.00948393      -0.01683100      -0.00759477
H        1.30570546       2.98864164       1.08157455      -0.01445572       0.00291299      -0.00633405       0.00377999      -0.01938343       0.00093548
H        2.05100577       1.53311988       1.41824850      -0.01759369       0.00511325       0.02035865      -0.01339961      -0.03188725      -0.00637865
C       -0.33801482       2.15219060      -0.73086914      -0.00392537       0.01641703      -0.00610391      -0.01108614       0.01112240      -0.00301004
H       -0.57161389       1.76027609      -1.72180907      -0.02079903       0.03032957      -0.00867523      -0.01926097       0.02781844      -0.00751028
H       -1.20633461       2.02512638      -0.08396688       0.01077204       0.01000838       0.00933460      -0.01444867       0.02029769      -0.00624168
H       -0.12809396       3.22367749      -0.81962735      -0.01942307       0.02713704      -0.01874907       0.00534366       0.00966642       0.00829164
18
Properties=species:S:1:pos:R:3:mp2_forces:R:3:forces:R:3 R1=CN R2=CH3 R3=NH2 R4=CH3 lg=F nu=F rxn-id=1573 mp2_energy=-13716.58550651916 energy=-13716.537705461034 free_energy=-13716.58549441061 pbc="F F F"
C        0.64074130      -0.08665347      -0.04257902       0.03817176       0.00289400       0.01097855      -0.02613508      -0.00578962      -0.01276179
C        0.88558313       1.45194541      -0.11899195      -0.00352215       0.00575122      -0.00579743      -0.02628049      -0.00753331      -0.01291339
H        1.75093817       1.58765660      -0.78739291      -0.02977612       0.01211253      -0.02726990      -0.02861467      -0.01006602      -0.01786044
F       -0.55689081      -0.40091325      -0.77083047      -0.00369248      -0.04725253       0.04620284      -0.01880413      -0.00551098      -0.01874723
F        2.99656769       0.19845460       0.96392596      -0.00455722      -0.05055897       0.06187627       0.03769059       0.04051931       0.04397738
C        1.66799115      -0.81425882      -0.80608311       0.03687671       0.00050064      -0.01856590      -0.00183545      -0.00376643       0.01462244
N        2.21120152      -1.45099593      -1.63213425       0.00513911      -0.03042491       0.01826628       0.06623705      -0.00853863       0.06207719
C        0.39066170      -0.64890291       1.33880613      -0.00608007       0.00188313      -0.00427486       0.00456183      -0.00106977      -0.00474116
H        1.24041266      -0.40968898       1.96215323       0.01856832      -0.04534765      -0.05335660       0.05531394      -0.02542932      -0.05840420
H       -0.53497093      -0.21328312       1.72305335       0.02866535       0.05347689       0.03197567       0.04105068       0.03281283       0.04614441
H        0.27135915      -1.73422131       1.25510987      -0.00391845       0.00174185      -0.04382143      -0.03182849       0.00098083       0.00430066
N        1.15621524       2.00691761       1.20501312      -0.01044993       0.00330556      -0.00604449      -0.01154699      -0.03172992      -0.00788973
H        1.30482140       3.00819738       1.07504108      -0.01445572       0.00291299      -0.00633405       0.00877914      -0.03384118       0.00678288
H        2.06695220       1.56409537       1.42587623      -0.01759369       0.00511325       0.02035865      -0.01533181      -0.05649155      -0.02015904
C       -0.32960597       2.13941580      -0.72324072      -0.00392537       0.01641703      -0.00610391      -0.01648820       0.01978858      -0.00636533
H       -0.56109186       1.73400357      -1.70906011      -0.02079903       0.03032957      -0.00867523      -0.02467326       0.04292502      -0.01452053
H       -1.19190140       1.99927742      -0.06975722       0.01077204       0.01000838       0.00933460      -0.02272834       0.03486166      -0.01239390
H       -0.13872840       3.21296515      -0.81913699      -0.01942307       0.02713704      -0.01874907       0.01063367       0.01787851       0.00885179
18
Properties=species:S:1:pos:R:3:mp2_forces:R:3:forces:R:3 R1=CN R2=CH3 R3=NH2 R4=CH3 lg=F nu=F rxn-id=1573 mp2_energy=-13716.58550651916 energy=-13716.503743293633 free_energy=-13716.58549441061 pbc="F F F"
C        0.65558204      -0.08474073      -0.03471546       0.03817176       0.00289400       0.01097855      -0.03897558      -0.00459096      -0.01310185
C        0.90328005       1.45540506      -0.11022399      -0.00352215       0.00575122      -0.00579743      -0.03904576      -0.01113646      -0.01391119
H        1.77035618       1.59418955      -0.77574343      -0.02977612       0.01211253      -0.02726990      -0.03793593      -0.02665365      -0.01705345
F       -0.55106058      -0.39582424      -0.75530825      -0.00369248      -0.04725253       0.04620284      -0.02172745      -0.00614566      -0.02767293
F        2.96722798       0.16856091       0.93603135      -0.00455722      -0.05055897       0.06187627       0.06479275       0.05910971       0.05321799
C        1.66573308      -0.81137343      -0.82106237       0.03687671       0.00050064      -0.01856590       0.00491374       0.00280734       0.03589107
N        2.17482522      -1.43553670      -1.67875485       0.00513911      -0.03042491       0.01826628       0.07613595      -0.00478983       0.08439447
C        0.38853866      -0.64925625       1.34335968      -0.00608007       0.00188313      -0.00427486      -0.00075573       0.00100067      -0.00555975
H        1.20286005      -0.39414603       2.00532303       0.01856832      -0.04534765      -0.05335660       0.07314260      -0.00719508      -0.09140442
H       -0.56172421      -0.23473568       1.69126953       0.02866535       0.05347689       0.03197567       0.03403328       0.02648122       0.06388931
H        0.29473911      -1.73637216       1.25744939      -0.00391845       0.00174185      -0.04382143      -0.02940045      -0.00082781       0.00881468
N        1.16397684       2.02874454       1.20929620      -0.01044993       0.00330556      -0.00604449      -0.01388430      -0.05058503      -0.00626831
H        1.30136091       3.03156013       1.06633119      -0.01445572       0.00291299      -0.00633405       0.01044017      -0.05380319       0.01518771
H        2.07520317       1.60214856       1.44311183      -0.01759369       0.00511325       0.02035865      -0.01286988      -0.08816384      -0.04220858
C       -0.31771526       2.12557652      -0.71947331      -0.00392537       0.01641703      -0.00610391      -0.02168043       0.02856720      -0.01040301
H       -0.54449186       1.70189354      -1.69850835      -0.02079903       0.03032957      -0.00867523      -0.03048556       0.05999136      -0.02294750
H       -1.17629568       1.97829778      -0.06156321       0.01077204       0.01000838       0.00933460      -0.02973826       0.04859682      -0.01815302
H       -0.14213977       3.19961973      -0.82704675      -0.01942307       0.02713704      -0.01874907       0.01304083       0.02733718       0.00728878
18
Properties=species:S:1:pos:R:3:mp2_forces:R:3:forces:R:3 R1=CN R2=CH3 R3=NH2 R4=CH3 lg=F nu=F rxn-id=1573 mp2_energy=-13716.58550651916 energy=-13716.458805535247 free_energy=-13716.58549441061 pbc="F F F"
C        0.67423628      -0.08326318      -0.02810817       0.03817176       0.00289400       0.01097855      -0.06090373      -0.00271965      -0.01457416
C        0.92039203       1.46079029      -0.10232875      -0.00352215       0.00575122      -0.00579743      -0.05164476      -0.01891831      -0.01498554
H        1.78687591       1.60872284      -0.76562067      -0.02977612       0.01211253      -0.02726990      -0.04127239      -0.05695197      -0.01250429
F       -0.54325971      -0.39344308      -0.73654133      -0.00369248      -0.04725253       0.04620284      -0.03012552       0.00381190      -0.04892340
F        2.93696517       0.14259032       0.89818891      -0.00455722      -0.05055897       0.06187627       0.11464279       0.07346068       0.07413122
C        1.66329964      -0.81264110      -0.83890808       0.03687671       0.00050064      -0.01856590       0.01664381       0.01306599       0.06753031
N        2.14121806      -1.43514306      -1.71654307       0.00513911      -0.03042491       0.01826628       0.07753998       0.01107560       0.10365691
C        0.39067342      -0.65105767       1.34718313      -0.00608007       0.00188313      -0.00427486      -0.01616605       0.00395080      -0.00932904
H        1.16460229      -0.39012785       2.05412237       0.01856832      -0.04534765      -0.05335660       0.09637485       0.02368168      -0.14104951
H       -0.57981566      -0.24975507       1.65518746       0.02866535       0.05347689       0.03197567       0.02000847       0.01101902       0.09488110
H        0.31234245      -1.73849079       1.25725269      -0.00391845       0.00174185      -0.04382143      -0.02418293      -0.00081987       0.01299078
N        1.16974598       2.05087543       1.21437076      -0.01044993       0.00330556      -0.00604449      -0.01645148      -0.07006998      -0.00648144
H        1.29497245       3.05513236       1.06235199      -0.01445572       0.00291299      -0.00633405       0.00831522      -0.07231481       0.01651438
H        2.08214255       1.64315842       1.46238829      -0.01759369       0.00511325       0.02035865      -0.01111410      -0.11989702      -0.06450636
C       -0.30742507       2.11394835      -0.71554005      -0.00392537       0.01641703      -0.00610391      -0.02434190       0.03538709      -0.01377490
H       -0.52801402       1.67506788      -1.68935997      -0.02079903       0.03032957      -0.00867523      -0.03559623       0.07242245      -0.02830655
H       -1.16321187       1.95934941      -0.05535756       0.01077204       0.01000838       0.00933460      -0.03437573       0.05962482      -0.02208281
H       -0.14548394       3.18829762      -0.83296573      -0.01942307       0.02713704      -0.01874907       0.01264968       0.03419160       0.00681328
18
Properties=species:S:1:pos:R:3:mp2_forces:R:3:forces:R:3 R1=CN R2=CH3 R3=NH2 R4=CH3 lg=F nu=F rxn-id=1573 mp2_energy=-13716.58550651916 energy=-13716.399739838198 free_energy=-13716.58549441061 pbc="F F F"
C        0.69622423      -0.08129429      -0.02301566       0.03817176       0.00289400       0.01097855      -0.11305462      -0.00898361      -0.03313364
C        0.93819243       1.46761620      -0.09759258      -0.00352215       0.00575122      -0.00579743      -0.06831125      -0.03022651      -0.01562385
H        1.80087639       1.62849201      -0.76226476      -0.02977612       0.01211253      -0.02726990      -0.04321755      -0.09085455      -0.00133430
F       -0.53106455      -0.39529851      -0.72032947      -0.00369248      -0.04725253       0.04620284      -0.05288214       0.03161776      -0.06596550
F        2.89757422       0.11662448       0.87616181      -0.00455722      -0.05055897       0.06187627       0.21444934       0.08303706       0.09740610
C        1.65741034      -0.81711782      -0.86136764       0.03687671       0.00050064      -0.01856590       0.04954814       0.02875827       0.10972708
N        2.11172285      -1.44097519      -1.75089424       0.00513911      -0.03042491       0.01826628       0.07899264       0.02770464       0.11541957
C        0.39678241      -0.65190939       1.34996488      -0.00608007       0.00188313      -0.00427486      -0.04035289       0.00253102      -0.01873394
H        1.13143332      -0.39709436       2.10209083       0.01856832      -0.04534765      -0.05335660       0.11888998       0.05687477      -0.19310929
H       -0.58700966      -0.25418725       1.62103660       0.02866535       0.05347689       0.03197567      -0.00327081      -0.00986284       0.12965109
H        0.32243401      -1.73787138       1.25078668      -0.00391845       0.00174185      -0.04382143      -0.02130885      -0.00650197       0.02633660
N        1.17545179       2.07504233       1.21619409      -0.01044993       0.00330556      -0.00604449      -0.02267934      -0.09041971      -0.00561868
H        1.29148909       3.07963029       1.05668249      -0.01445572       0.00291299      -0.00633405       0.00512178      -0.08726226       0.01074724
H        2.08603041       1.68392818       1.48375630      -0.01759369       0.00511325       0.02035865      -0.00779020      -0.14660265      -0.08287156
C       -0.29932342       2.10208676      -0.71060086      -0.00392537       0.01641703      -0.00610391      -0.02762607       0.04511427      -0.01754707
H       -0.51705148       1.65094976      -1.67929222      -0.02079903       0.03032957      -0.00867523      -0.03516561       0.08165563      -0.03504712
H       -1.15068216       1.93878229      -0.04672415       0.01077204       0.01000838       0.00933460      -0.03754471       0.06971253      -0.02219044
H       -0.15023429       3.17660701      -0.83481987      -0.01942307       0.02713704      -0.01874907       0.00620215       0.04370815       0.00188772
18
Properties=species:S:1:pos:R:3:mp2_forces:R:3:forces:R:3 R1=CN R2=CH3 R3=NH2 R4=CH3 lg=F nu=F rxn-id=1573 mp2_energy=-13716.58550651916 energy=-13716.29784428798 free_energy=-13716.58549441061 pbc="F F F"
C        0.73099268      -0.07815791      -0.01286356       0.03817176       0.00289400       0.01097855      -0.36014046      -0.04948863      -0.15675092
C        0.95849537       1.47667725      -0.09323015      -0.00352215       0.00575122      -0.00579743      -0.08869119      -0.04692131      -0.01745329
H        1.81382183       1.65528520      -0.76195364      -0.02977612       0.01211253      -0.02726990      -0.03968765      -0.12418818       0.01563799
F       -0.51571944      -0.40507078      -0.70189413      -0.00369248      -0.04725253       0.04620284      -0.01344254       0.10782577      -0.03164623
F        2.83257871       0.08936136       0.84772458      -0.00455722      -0.05055897       0.06187627       0.42991739       0.08590845       0.15891262
C        1.64293227      -0.82453188      -0.89267138       0.03687671       0.00050064      -0.01856590       0.14533788       0.03660368       0.14851505
N        2.08773580      -1.44923657      -1.78656193       0.00513911      -0.03042491       0.01826628       0.05662864       0.04703306       0.12206591
C        0.40837740      -0.65245460       1.35546857      -0.00608007       0.00188313      -0.00427486      -0.07168192      -0.00352873      -0.04337951
H        1.09564248      -0.41308155       2.15973903       0.01856832      -0.04534765      -0.05335660       0.13407340       0.08936278      -0.23167302
H       -0.58668129      -0.25252079       1.58283525       0.02866535       0.05347689       0.03197567      -0.03510072      -0.03161440       0.17956291
H        0.33041834      -1.73541315       1.24260549      -0.00391845       0.00174185      -0.04382143      -0.01464032      -0.02004386       0.04553182
N        1.18239096       2.10247916       1.21774447      -0.01044993       0.00330556      -0.00604449      -0.03613105      -0.10837721      -0.00628079
H        1.29016002       3.10623545       1.05319502      -0.01445572       0.00291299      -0.00633405      -0.00057415      -0.09325795      -0.00414239
H        2.08831765       1.72813818       1.50863873      -0.01759369       0.00511325       0.02035865      -0.00211586      -0.16142473      -0.09463457
C       -0.29096001       2.08852200      -0.70523392      -0.00392537       0.01641703      -0.00610391      -0.03313347       0.06180210      -0.02116054
H       -0.50705537       1.62620682      -1.66836472      -0.02079903       0.03032957      -0.00867523      -0.02624769       0.08553781      -0.04324384
H       -1.13909034       1.91818385      -0.03963069       0.01077204       0.01000838       0.00933460      -0.03397418       0.07537707      -0.01313155
H       -0.15210114       3.16338911      -0.83577480      -0.01942307       0.02713704      -0.01874907      -0.01039611       0.04939426      -0.00672966
18
Properties=species:S:1:pos:R:3:mp2_forces:R:3:forces:R:3 R1=CN R2=CH3 R3=NH2 R4=CH3 lg=F nu=F rxn-id=1573 mp2_energy=-13716.58550651916 energy=-13716.09512921274 free_energy=-13716.58549441061 pbc="F F F"
C        0.79898232      -0.06856600       0.01732529       0.03817176       0.00289400       0.01097855      -1.88903759      -0.37287209      -0.96381512
C        0.97587619       1.48590362      -0.08971757      -0.00352215       0.00575122      -0.00579743      -0.06116865      -0.06389046      -0.00385557
H        1.82140136       1.67946056      -0.76499672      -0.02977612       0.01211253      -0.02726990      -0.02721269      -0.12705285       0.03651152
F       -0.51201456      -0.42595356      -0.69539251      -0.00369248      -0.04725253       0.04620284       1.10281461       0.40954981       0.60780492
F        2.74946982       0.07218719       0.81690724      -0.00455722      -0.05055897       0.06187627       0.65812649       0.07547742       0.23735341
C        1.61597071      -0.83366103      -0.92424433       0.03687671       0.00050064      -0.01856590       0.26200508       0.08048087       0.22579980
N        2.07540186      -1.45654975      -1.80773503       0.00513911      -0.03042491       0.01826628       0.04765530       0.01303113       0.04649062
C        0.42252840      -0.65170604       1.36384668      -0.00608007       0.00188313      -0.00427486      -0.06685419      -0.00011294      -0.10963834
H        1.06899598      -0.42956581       2.20496191       0.01856832      -0.04534765      -0.05335660       0.10754173       0.08783067      -0.20280028
H       -0.58012299      -0.24706233       1.54712114       0.02866535       0.05347689       0.03197567      -0.04454585      -0.02326437       0.22997684
H        0.33425830      -1.73165060       1.23415646      -0.00391845       0.00174185      -0.04382143       0.01535080      -0.03288723       0.06873081
N        1.18958240       2.12345399       1.21901211      -0.01044993       0.00330556      -0.00604449      -0.04244274      -0.10004858      -0.00490764
H        1.29023928       3.12425518       1.05408528      -0.01445572       0.00291299      -0.00633405       0.00043709      -0.06999816      -0.01738856
H        2.08885473       1.75938722       1.52700355      -0.01759369       0.00511325       0.02035865       0.00923563      -0.13678129      -0.08431100
C       -0.28453194       2.07648193      -0.70111021      -0.00392537       0.01641703      -0.00610391      -0.03301713       0.07156253      -0.01334259
H       -0.50221764       1.60962926      -1.65982310      -0.02079903       0.03032957      -0.00867523       0.00437546       0.08825512      -0.05301146