16
Properties=species:S:1:pos:R:3:mp2_forces:R:3:forces:R:3 R1=H R2=CH3 R3=NH2 R4=NO2 lg=Br nu=Cl rxn-id=687 mp2_energy=-92797.19527523385 energy=-92797.19528080669 free_energy=-92797.19528080669 pbc="F F F"
C        0.37777071      -0.01656597       0.15655654       0.05815017       0.02845245       0.00181348       0.05814965       0.02844677       0.00180736
C        0.74058389       1.45771377       0.05056893       0.01720656       0.00245456      -0.00733469       0.01713627       0.00251794      -0.00727330
H        1.83223910       1.48809587       0.06969671      -0.00366180       0.01748230      -0.03544512      -0.00360742       0.01748240      -0.03544860
Br      -1.56755461      -0.26745320       0.37867532      -0.04560161      -0.03195713      -0.01400554      -0.04560269      -0.03197151      -0.01401580
Cl       3.27784537      -0.38663614      -1.27439699       0.02695342       0.05489961       0.05023131       0.02694757       0.05489829       0.05023488
H        0.65661198      -0.51698244      -0.76743018      -0.07137443      -0.00158319      -0.00043615      -0.07138641      -0.00158647      -0.00043297
C        1.09033756      -0.64683804       1.33723420      -0.00426284       0.00612001       0.00153946      -0.00427219       0.00612366       0.00153060
H        2.15681641      -0.45033244       1.21371699      -0.00097853      -0.04895686       0.02511240      -0.00094747      -0.04894522       0.02511036
H        0.71893769      -0.24754082       2.28471846       0.03546963       0.00245656       0.00897782       0.03545854       0.00246715       0.00898827
H        0.95491061      -1.72944818       1.32780979      -0.07030312       0.01995367       0.03676872      -0.07030481       0.01994135       0.03676235
N        0.18171837       2.36718048       1.01210456       0.01816179      -0.03631710      -0.01401429       0.01816070      -0.03631090      -0.01400506
H        0.79115340       2.47738067       1.80777924       0.01426587      -0.01830571      -0.02020978       0.01426587      -0.01831125      -0.02021027
H       -0.73511822       2.06098058       1.31263359       0.05433068      -0.05133493       0.02274488       0.05434503      -0.05133284       0.02273849
N        0.42826413       2.01437379      -1.32895327       0.01597590       0.00640808       0.00454117       0.01580982       0.00616222       0.00443261
O        0.98313381       3.07182819      -1.60327460      -0.05933298       0.02807076      -0.03702930      -0.05919885       0.02816665      -0.03702342
O       -0.35159344       1.40650248      -2.05809030       0.01500126       0.02215693      -0.02325439       0.01504642       0.02225175      -0.02319547
16
Properties=species:S:1:pos:R:3:mp2_forces:R:3:forces:R:3 R1=H R2=CH3 R3=NH2 R4=NO2 lg=Br nu=Cl rxn-id=687 mp2_energy=-92797.19527523385 energy=-92797.29037327507 free_energy=-92797.19528080669 pbc="F F F"
C        0.38902513      -0.01570619       0.17857081       0.05815017       0.02845245       0.00181348      -0.00759711      -0.00337112      -0.00541365
C        0.76766140       1.45638406       0.04279478       0.01720656       0.00245456      -0.00733469      -0.00250079      -0.00516059      -0.00681727
H        1.85933551       1.48420626       0.03836542      -0.00366180       0.01748230      -0.03544512      -0.00179676      -0.01304084      -0.01374161
Br      -1.55985415      -0.27888062       0.41103091      -0.04560161      -0.03195713      -0.01400554      -0.00784787       0.00347511       0.00186652
Cl       3.28187320      -0.21514838      -1.30623660       0.02695342       0.05489961       0.05023131       0.03677472       0.02335127       0.02831088
H        0.64957113      -0.52592006      -0.74265753      -0.07137443      -0.00158319      -0.00043615      -0.01315048      -0.00808617      -0.00456548
C        1.09181502      -0.66242333       1.36215817      -0.00426284       0.00612001       0.00153946      -0.00514956       0.00356933      -0.00315447
H        2.16483249      -0.53026301       1.22146694      -0.00097853      -0.04895686       0.02511240      -0.00523156      -0.00914458      -0.01585710
H        0.76340522      -0.23465720       2.31226348       0.03546963       0.00245656       0.00897782       0.00903860       0.02384533      -0.00743016
H        0.88703655      -1.73362566       1.37723692      -0.07030312       0.01995367       0.03676872      -0.01825834       0.00733965       0.01771722
N        0.23152853       2.38416306       1.00266793       0.01816179      -0.03631710      -0.01401429       0.00814094      -0.00913659       0.00301053
H        0.72937005       2.29045272       1.87026384       0.01426587      -0.01830571      -0.02020978       0.01764858      -0.01204187      -0.00413224
H       -0.75387396       2.17925670       1.16031962       0.05433068      -0.05133493       0.02274488       0.01076162      -0.00966999       0.01337618
N        0.43235758       2.01148981      -1.33731218       0.01597590       0.00640808       0.00454117      -0.00706719       0.00155238      -0.00117420
O        1.00713854       3.04418451      -1.65205795      -0.05933298       0.02807076      -0.03702930      -0.01676482       0.00946130       0.00690290
O       -0.40516547       1.42874592      -2.01952558       0.01500126       0.02215693      -0.02325439       0.00300003      -0.00294264      -0.00889806
16
Properties=species:S:1:pos:R:3:mp2_forces:R:3:forces:R:3 R1=H R2=CH3 R3=NH2 R4=NO2 lg=Br nu=Cl rxn-id=687 mp2_energy=-92797.19527523385 energy=-92797.29603889203 free_energy=-92797.19528080669 pbc="F F F"
C        0.37624335      -0.01688811       0.17244365       0.05815017       0.02845245       0.00181348      -0.00314236      -0.00345505      -0.00401231
C        0.76250508       1.45236316       0.03471148       0.01720656       0.00245456      -0.00733469      -0.00141759      -0.00401065      -0.00383604
H        1.85502835       1.47312987       0.02487504      -0.00366180       0.01748230      -0.03544512      -0.00085727      -0.01031746      -0.01307169
Br      -1.57386690      -0.26858154       0.41985522      -0.04560161      -0.03195713      -0.01400554      -0.00398153       0.00045709      -0.00963977
Cl       3.30120446      -0.21340943      -1.26627924       0.02695342       0.05489961       0.05023131       0.03950390       0.02611684       0.02188243
H        0.62429283      -0.53282019      -0.74856879      -0.07137443      -0.00158319      -0.00043615       0.00016299      -0.00493251      -0.00264833
C        1.08529925      -0.65684889       1.35644227      -0.00426284       0.00612001       0.00153946      -0.00666744      -0.00118587      -0.00103149
H        2.15710138      -0.52029254       1.20997060      -0.00097853      -0.04895686       0.02511240      -0.00520489      -0.01884948      -0.01254916
H        0.75956668      -0.22357565       2.30471297       0.03546963       0.00245656       0.00897782       0.00704875       0.01852288      -0.00419978
H        0.88504404      -1.72797828       1.37851430      -0.07030312       0.01995367       0.03676872      -0.02535338       0.00173748       0.01711303
N        0.23247075       2.37319145       1.00376418       0.01816179      -0.03631710      -0.01401429       0.01202762      -0.00421214       0.00355705
H        0.77009288       2.31601527       1.84859106       0.01426587      -0.01830571      -0.02020978       0.01835596      -0.00834678      -0.00080546
H       -0.73733092       2.13166703       1.20459242       0.05433068      -0.05133493       0.02274488       0.01056089       0.00876875       0.00933767
N        0.42945089       2.01545695      -1.34182622       0.01597590       0.00640808       0.00454117      -0.01167057      -0.00074114      -0.00019630
O        0.97350575       3.07309205      -1.62991974      -0.05933298       0.02807076      -0.03702930      -0.02399094       0.00682617       0.00299264
O       -0.36455111       1.40773743      -2.05253021       0.01500126       0.02215693      -0.02325439      -0.00537415      -0.00637814      -0.00289247
16
Properties=species:S:1:pos:R:3:mp2_forces:R:3:forces:R:3 R1=H R2=CH3 R3=NH2 R4=NO2 lg=Br nu=Cl rxn-id=687 mp2_energy=-92797.19527523385 energy=-92797.27650206731 free_energy=-92797.19528080669 pbc="F F F"
C        0.37967450      -0.00763038       0.18430410       0.05815017       0.02845245       0.00181348      -0.00359615      -0.00628679      -0.00627047
C        0.76231418       1.46317591       0.04485842       0.01720656       0.00245456      -0.00733469      -0.00324288      -0.00704219      -0.00205647
H        1.85310392       1.49806480       0.05787704      -0.00366180       0.01748230      -0.03544512      -0.00183259      -0.02067713      -0.01465490
Br      -1.56775956      -0.26191463       0.45904395      -0.04560161      -0.03195713      -0.01400554      -0.00425404      -0.01121191      -0.02978311
Cl       3.22269716      -0.27834444      -1.29846776       0.02695342       0.05489961       0.05023131       0.05627002       0.02924468       0.00779133
H        0.61299335      -0.51756505      -0.74313851      -0.07137443      -0.00158319      -0.00043615       0.01242250      -0.00715528      -0.00240798
C        1.10314878      -0.65929527       1.35413769      -0.00426284       0.00612001       0.00153946      -0.01045492       0.00172999       0.00080881
H        2.17037124      -0.47352140       1.23246060      -0.00097853      -0.04895686       0.02511240      -0.00756230      -0.02342499      -0.02136865
H        0.74420509      -0.28304222       2.31375236       0.03546963       0.00245656       0.00897782       0.01173459       0.03450706      -0.00223115
H        0.95545109      -1.73952089       1.32480539      -0.07030312       0.01995367       0.03676872      -0.03984019       0.00469512       0.03023062
N        0.20259155       2.38856857       0.99306235       0.01816179      -0.03631710      -0.01401429       0.01662339      -0.00512763       0.00840106
H        0.72667579       2.34152362       1.84716028       0.01426587      -0.01830571      -0.02020978       0.01988630      -0.00994902       0.00639197
H       -0.76408081       2.12156504       1.18362344       0.05433068      -0.05133493       0.02274488       0.01079998       0.02370954       0.01054202
N        0.45585444       2.01573771      -1.34435924       0.01597590       0.00640808       0.00454117      -0.01579861      -0.00227828       0.00481196
O        1.02833183       3.05581190      -1.63956033      -0.05933298       0.02807076      -0.03702930      -0.02752982       0.00469117       0.00583811
O       -0.34951578       1.41864533      -2.05021077       0.01500126       0.02215693      -0.02325439      -0.01362527      -0.00542436       0.00395686
16
Properties=species:S:1:pos:R:3:mp2_forces:R:3:forces:R:3 R1=H R2=CH3 R3=NH2 R4=NO2 lg=Br nu=Cl rxn-id=687 mp2_energy=-92797.19527523385 energy=-92797.26085157211 free_energy=-92797.19528080669 pbc="F F F"
C        0.38235882      -0.00252733       0.18880786       0.05815017       0.02845245       0.00181348      -0.00658751      -0.00701214      -0.00245494
C        0.76667187       1.46908905       0.04807701       0.01720656       0.00245456      -0.00733469      -0.01275068      -0.01005719       0.00088720
H        1.85650172       1.51328680       0.07444291      -0.00366180       0.01748230      -0.03544512      -0.01083813      -0.03716669      -0.01736074
Br      -1.56336066      -0.25798822       0.48837478      -0.04560161      -0.03195713      -0.01400554      -0.00659837      -0.01107120      -0.04813737
Cl       3.16596592      -0.30482926      -1.30752248       0.02695342       0.05489961       0.05023131       0.08379726       0.02525877      -0.01223850
H        0.59943889      -0.51075490      -0.74344302      -0.07137443      -0.00158319      -0.00043615       0.03174210      -0.00570298       0.00566518
C        1.11347661      -0.66044132       1.35142932      -0.00426284       0.00612001       0.00153946      -0.01558839       0.00407418       0.00609737
H        2.17762945      -0.44694341       1.25306852      -0.00097853      -0.04895686       0.02511240      -0.01306644      -0.02043922      -0.03772317
H        0.73070051      -0.31537617       2.31282092       0.03546963       0.00245656       0.00897782       0.01920536       0.03640553       0.01169535
H        0.99543591      -1.74342269       1.29440986      -0.07030312       0.01995367       0.03676872      -0.04572358       0.00455917       0.03550869
N        0.18892099       2.39443125       0.98526660       0.01816179      -0.03631710      -0.01401429       0.01620310      -0.00101207       0.01263276
H        0.70492130       2.35197824       1.84447894       0.01426587      -0.01830571      -0.02020978       0.02159759      -0.00993459       0.00942909
H       -0.77455399       2.10735399       1.16886613       0.05433068      -0.05133493       0.02274488       0.00677682       0.04067563       0.01815361
N        0.47330468       2.01644293      -1.34594676       0.01597590       0.00640808       0.00454117      -0.02254659      -0.00447896       0.00629211
O        1.05590096       3.04952505      -1.64579716      -0.05933298       0.02807076      -0.03702930      -0.02650940      -0.00085388       0.01118180
O       -0.33725623       1.42243460      -2.04798444       0.01500126       0.02215693      -0.02325439      -0.01911314      -0.00324436       0.00037155
16
Properties=species:S:1:pos:R:3:mp2_forces:R:3:forces:R:3 R1=H R2=CH3 R3=NH2 R4=NO2 lg=Br nu=Cl rxn-id=687 mp2_energy=-92797.19527523385 energy=-92797.19843992655 free_energy=-92797.19528080669 pbc="F F F"
C        0.39351667       0.00849200       0.19394113       0.05815017       0.02845245       0.00181348      -0.04667610      -0.00220386       0.02458753
C        0.78563565       1.48427482       0.04649151       0.01720656       0.00245456      -0.00733469      -0.05585580      -0.02259075       0.01735795
H        1.87272788       1.56854010       0.10065617      -0.00366180       0.01748230      -0.03544512      -0.04885576      -0.13398724      -0.01913881
Br      -1.55240268      -0.23992401       0.56423009      -0.04560161      -0.03195713      -0.01400554       0.01354794      -0.00990150      -0.09840316
Cl       3.02914996      -0.33772323      -1.29722597       0.02695342       0.05489961       0.05023131       0.19637052      -0.00035277      -0.09285802
H        0.55198939      -0.50288374      -0.75009942      -0.07137443      -0.00158319      -0.00043615       0.11122325       0.01504197       0.03758067
C        1.13890065      -0.66604707       1.34376530      -0.00426284       0.00612001       0.00153946      -0.04877366       0.01371161       0.02375594
H        2.19941466      -0.41230665       1.31832744      -0.00097853      -0.04895686       0.02511240      -0.05396481       0.01762236      -0.11968407
H        0.70009879      -0.37579617       2.29709280       0.03546963       0.00245656       0.00897782       0.04363899       0.01944561       0.07136202
H        1.06716291      -1.75007337       1.23808919      -0.07030312       0.01995367       0.03676872      -0.05147352       0.01176055       0.03629926
N        0.16336130       2.39621310       0.96558228       0.01816179      -0.03631710      -0.01401429       0.01406042       0.02770848       0.02279289
H        0.66741325       2.36232701       1.83209772       0.01426587      -0.01830571      -0.02020978       0.02622399       0.00077393       0.01390669
H       -0.78645023       2.04765590       1.13781859       0.05433068      -0.05133493       0.02274488      -0.00791800       0.09853683       0.04137690
N        0.51007613       2.02250507      -1.35645760       0.01597590       0.00640808       0.00454117      -0.04023618      -0.01311456       0.01544665
O        1.10370845       3.04669905      -1.66561459      -0.05933298       0.02807076      -0.03702930      -0.02099227      -0.01960179       0.03142570
O       -0.30824602       1.43030578      -2.04934565       0.01500126       0.02215693      -0.02325439      -0.03031898      -0.00284886      -0.00580814
16
Properties=species:S:1:pos:R:3:mp2_forces:R:3:forces:R:3 R1=H R2=CH3 R3=NH2 R4=NO2 lg=Br nu=Cl rxn-id=687 mp2_energy=-92797.19527523385 energy=-92797.0441397927 free_energy=-92797.19528080669 pbc="F F F"
C        0.42359453       0.00926058       0.17832636       0.05815017       0.02845245       0.00181348      -0.46857570       0.00987084       0.16988564
C        0.82045352       1.49804894       0.03559640       0.01720656       0.00245456      -0.00733469      -0.15588234      -0.04934853       0.04443536
H        1.90298567       1.65417234       0.11362443      -0.00366180       0.01748230      -0.03544512      -0.10130788      -0.28428098      -0.01755326
Br      -1.56146557      -0.23423459       0.62731008      -0.04560161      -0.03195713      -0.01400554       0.32250130       0.04938699      -0.17093291
Cl       2.89891698      -0.33523405      -1.23893932       0.02695342       0.05489961       0.05023131       0.40486564      -0.05144906      -0.24005757
H        0.48095928      -0.51307157      -0.77363760      -0.07137443      -0.00158319      -0.00043615       0.28262108       0.06476645       0.07410782
C        1.17070876      -0.67518180       1.32897383      -0.00426284       0.00612001       0.00153946      -0.13536233       0.02575447       0.03779127
H        2.23477250      -0.42274373       1.39599952      -0.00097853      -0.04895686       0.02511240      -0.11614193       0.08421736      -0.23421985
H        0.67211260      -0.38879362       2.25120914       0.03546963       0.00245656       0.00897782       0.08876501      -0.04013772       0.18107250
H        1.10255567      -1.75818116       1.21558205      -0.07030312       0.01995367       0.03676872      -0.04776741       0.01938519       0.02183538
N        0.15396963       2.37850086       0.95095185       0.01816179      -0.03631710      -0.01401429       0.00858109       0.08242698       0.02382186
H        0.65080395       2.36078574       1.82258204       0.01426587      -0.01830571      -0.02020978       0.02928247       0.00850188      -0.00007064
H       -0.78248421       1.98672541       1.11075229       0.05433068      -0.05133493       0.02274488      -0.01910032       0.13247924       0.06026569
N        0.53653101       2.03071649      -1.36686537       0.01597590       0.00640808       0.00454117      -0.05522578      -0.01590608       0.01953484
O        1.12045904       3.05775531      -1.68522367      -0.05933298       0.02807076      -0.03702930      -0.00566949      -0.03661341       0.04589040
O       -0.28881659       1.43373344      -2.04689303       0.01500126       0.02215693      -0.02325439      -0.03158340       0.00094639      -0.01580651
16
Properties=species:S:1:pos:R:3:mp2_forces:R:3:forces:R:3 R1=H R2=CH3 R3=NH2 R4=NO2 lg=Br nu=Cl rxn-id=687 mp2_energy=-92797.19527523385 energy=-92796.7045889776 free_energy=-92797.19528080669 pbc="F F F"
C        0.52933040       0.00671985       0.13977697       0.05815017       0.02845245       0.00181348      -1.37796536       0.02593483       0.46520631
C        0.85559015       1.50896460       0.02569087       0.01720656       0.00245456      -0.00733469      -0.13931838      -0.06959706       0.02895589
H        1.92576109       1.71810065       0.11766901      -0.00366180       0.01748230      -0.03544512      -0.05373398      -0.23087469      -0.01212173
Br      -1.63334001      -0.24546995       0.66526834      -0.04560161      -0.03195713      -0.01400554       0.71748796       0.09882860      -0.20951856
Cl       2.80764010      -0.32276864      -1.18438816       0.02695342       0.05489961       0.05023131       0.49735133      -0.07410897      -0.30939034
H        0.41733941      -0.52794252      -0.79056403      -0.07137443      -0.00158319      -0.00043615       0.45508126       0.05719849      -0.02043321
C        1.20135478      -0.68129871       1.32040446      -0.00426284       0.00612001       0.00153946      -0.12094119       0.01920288      -0.00055777
H        2.26116465      -0.44250116       1.44868652      -0.00097853      -0.04895686       0.02511240      -0.07237454       0.07635925      -0.19572736
H        0.65228623      -0.37936848       2.21027442       0.03546963       0.00245656       0.00897782       0.10354837      -0.05878088       0.17248031
H        1.11290639      -1.76279206       1.21116306      -0.07030312       0.01995367       0.03676872      -0.01360987       0.00692062       0.01774224
N        0.15222518       2.36012445       0.94547042       0.01816179      -0.03631710      -0.01401429       0.02274694       0.08454237       0.01062962
H        0.64415963       2.35877550       1.82269209       0.01426587      -0.01830571      -0.02020978       0.02482052       0.00910267      -0.01760981
H       -0.77835920       1.95813051       1.09682624       0.05433068      -0.05133493       0.02274488      -0.00289660       0.08571196       0.03779035
N        0.54864893       2.03409056      -1.37116786       0.01597590       0.00640808       0.00454117      -0.02588805      -0.00513953       0.00776529
O        1.12170267       3.06579544      -1.69557243      -0.05933298       0.02807076      -0.03702930       0.00247598      -0.02673601       0.03073058
O       -0.28235365       1.43369856      -2.04288094       0.01500126       0.02215693      -0.02325439      -0.01678437       0.00143546      -0.00594180
16
Properties=species:S:1:pos:R:3:mp2_forces:R:3:forces:R:3 R1=H R2=CH3 R3=NH2 R4=NO2 lg=Br nu=Cl rxn-id=687 mp2_energy=-92797.19527523385 energy=-92796.51549569616 free_energy=-92797.19528080669 pbc="F F F"
C        0.61658368       0.00503301       0.11037711       0.05815017       0.02845245       0.00181348      -0.95350925       0.04482427       0.35555070
C        0.86434121       1.51334672       0.02383621       0.01720656       0.00245456      -0.00733469      -0.04970402      -0.03660935       0.00482654
H        1.92908869       1.73271452       0.11847182      -0.00366180       0.01748230      -0.03544512      -0.01694053      -0.11555846      -0.00786098
Br      -1.67838194      -0.25178730       0.67854023      -0.04560161      -0.03195713      -0.01400554       0.39275452       0.04925587      -0.10894675
Cl       2.77587310      -0.31793269      -1.16476667       0.02695342       0.05489961       0.05023131       0.30177000      -0.04419089      -0.19216698
H        0.38840795      -0.53165065      -0.78929103      -0.07137443      -0.00158319      -0.00043615       0.31895505       0.01112282      -0.06854988
C        1.20903529      -0.68254722       1.32043497      -0.00426284       0.00612001       0.00153946      -0.03873502       0.00410707      -0.00451620
H        2.26577250      -0.44736525       1.46113049      -0.00097853      -0.04895686       0.02511240      -0.02824559       0.03712941      -0.10410467
H        0.64576204      -0.37570135       2.19936572       0.03546963       0.00245656       0.00897782       0.05920933      -0.03484454       0.09116691
H        1.11383048      -1.76325519       1.21009770      -0.07030312       0.01995367       0.03676872      -0.00330720       0.00117376       0.00975117
N        0.15075401       2.35482002       0.94476537       0.01816179      -0.03631710      -0.01401429       0.01674643       0.04874639       0.00278285
H        0.64251785       2.35808292       1.82380781       0.01426587      -0.01830571      -0.02020978       0.01308576       0.00620149      -0.01157079
H       -0.77825590       1.95289969       1.09434823       0.05433068      -0.05133493       0.02274488       0.00191932       0.04326332       0.01837432
N        0.55035554       2.03449407      -1.37169172       0.01597590       0.00640808       0.00454117      -0.00751253      -0.00212372       0.00097965
O        1.12174282       3.06737569      -1.69753255      -0.05933298       0.02807076      -0.03702930       0.00222720      -0.01281786       0.01432726
O       -0.28137057       1.43373161      -2.04254468       0.01500126       0.02215693      -0.02325439      -0.00871347       0.00032042      -0.00004317
16
Properties=species:S:1:pos:R:3:mp2_forces:R:3:forces:R:3 R1=H R2=CH3 R3=NH2 R4=NO2 lg=Br nu=Cl rxn-id=687 mp2_energy=-92797.19527523385 energy=-92796.43961437416 free_energy=-92797.19528080669 pbc="F F F"
C        0.70747996       0.00068617       0.07647082       0.05815017       0.02845245       0.00181348      -0.01777349       0.00044667       0.00702432
C        0.86898664       1.51681381       0.02337070       0.01720656       0.00245456      -0.00733469      -0.00173639      -0.00064419       0.00003521
H        1.93058127       1.74372711       0.11927430      -0.00366180       0.01748230      -0.03544512      -0.00155319      -0.00209844       0.00035056
Br      -1.71521734      -0.25658326       0.68891468      -0.04560161      -0.03195713      -0.01400554       0.01299050      -0.00030347      -0.00197201
Cl       2.74668551      -0.31351145      -1.14639433       0.02695342       0.05489961       0.05023131       0.00171714       0.00122890      -0.00328492
H        0.35781239      -0.53283140      -0.78274066      -0.07137443      -0.00158319      -0.00043615       0.00379840      -0.00141808      -0.00160091
C        1.21278755      -0.68299760       1.32088743      -0.00426284       0.00612001       0.00153946       0.00006169      -0.00065804       0.00038828
H        2.26850729      -0.45094499       1.47112979      -0.00097853      -0.04895686       0.02511240      -0.00006459       0.00023914      -0.00119347
H        0.64015799      -0.37246106       2.19070167       0.03546963       0.00245656       0.00897782       0.00143792      -0.00153815       0.00195875
H        1.11423328      -1.76341420       1.20925296      -0.07030312       0.01995367       0.03676872       0.00081664      -0.00047911       0.00099535
N        0.14910827       2.35024820       0.94445451       0.01816179      -0.03631710      -0.01401429      -0.00020510       0.00177304      -0.00043144
H        0.64117681       2.35732154       1.82490897       0.01426587      -0.01830571      -0.02020978      -0.00070876      -0.00158748      -0.00021068
H       -0.77856980       1.94908424       1.09247479       0.05433068      -0.05133493       0.02274488      -0.00131916       0.00393669      -0.00091567
N        0.55110709       2.03473746      -1.37183999       0.01597590       0.00640808       0.00454117       0.00023205       0.00036790      -0.00057810
O        1.12185809       3.06847094      -1.69893128      -0.05933298       0.02807076      -0.03702930       0.00343336      -0.00147495      -0.00012463
O       -0.28063825       1.43391310      -2.04258538       0.01500126       0.02215693      -0.02325439      -0.00112703       0.00220957      -0.00044064
16
Properties=species:S:1:pos:R:3:mp2_forces:R:3:forces:R:3 R1=H R2=CH3 R3=NH2 R4=NO2 lg=Br nu=Cl rxn-id=687 mp2_energy=-92797.19527523385 energy=-92796.52648627885 free_energy=-92797.19528080669 pbc="F F F"
C        0.80289198      -0.00748852       0.03473520       0.05815017       0.02845245       0.00181348       1.12256442      -0.09692029      -0.49134190
C        0.87184187       1.51772823       0.02332980       0.01720656       0.00245456      -0.00733469       0.03255789       0.01050243      -0.00050699
H        1.93134383       1.75348920       0.12052490      -0.00366180       0.01748230      -0.03544512       0.00760355       0.11468951       0.01526092
Br      -1.74722014      -0.26024542       0.69750538      -0.04560161      -0.03195713      -0.01400554      -0.36998290      -0.04423279       0.10079526
Cl       2.71389839      -0.30891608      -1.12564280       0.02695342       0.05489961       0.05023131      -0.38998216       0.05609733       0.24467428
H        0.32730306      -0.52986557      -0.76911752      -0.07137443      -0.00158319      -0.00043615      -0.36090017       0.03367282       0.16073360
C        1.21459096      -0.68206518       1.31911082      -0.00426284       0.00612001       0.00153946       0.02179846       0.01039535      -0.02067939
H        2.27054944      -0.45368778       1.48088586      -0.00097853      -0.04895686       0.02511240       0.02438502      -0.03266609       0.11536841
H        0.63515806      -0.36880128       2.18247280       0.03546963       0.00245656       0.00897782      -0.05835773       0.04218683      -0.09640420
H        1.11455802      -1.76334824       1.20877281      -0.07030312       0.01995367       0.03676872       0.00464507       0.00029496      -0.00474444
N        0.14733203       2.34493688       0.94455093       0.01816179      -0.03631710      -0.01401429      -0.02143032      -0.06162173       0.00070404
H        0.64008488       2.35627654       1.82585593       0.01426587      -0.01830571      -0.02020978      -0.01378226      -0.01404812       0.01114113
H       -0.77951998       1.94590029       1.09081049       0.05433068      -0.05133493       0.02274488      -0.01259831      -0.03415440      -0.02081401
N        0.55120876       2.03485121      -1.37165031       0.01597590       0.00640808       0.00454117       0.00153106       0.00181031       0.00168434
O        1.12214237       3.06913763      -1.69982990      -0.05933298       0.02807076      -0.03702930       0.00673874       0.00652565      -0.01089246
O       -0.28010676       1.43435669      -2.04296540       0.01500126       0.02215693      -0.02325439       0.00520964       0.00746825      -0.00497858
16
Properties=species:S:1:pos:R:3:mp2_forces:R:3:forces:R:3 R1=H R2=CH3 R3=NH2 R4=NO2 lg=Br nu=Cl rxn-id=687 mp2_energy=-92797.19527523385 energy=-92796.88766911847 free_energy=-92797.19528080669 pbc="F F F"