16
Properties=species:S:1:pos:R:3:mp2_forces:R:3:forces:R:3 R1=NO2 R2=H R3=NH2 R4=CH3 lg=Br nu=Cl rxn-id=989 mp2_energy=-92797.09088388218 energy=-92797.09088966726 free_energy=-92797.09088966726 pbc="F F F"
C        0.39276452      -0.03317693      -0.11592054       0.03516372       0.01185936      -0.04819148       0.03515625       0.01183670      -0.04817486
C        0.78890691       1.43635223      -0.13072106       0.02653312       0.00401748       0.00046618       0.02655266       0.00400768       0.00045172
H        1.85184116       1.41064612      -0.39203960       0.03078373       0.00656807       0.02801710       0.03077459       0.00656788       0.02802095
Br      -1.52430660      -0.35279306      -0.32210493       0.03801257       0.02212746      -0.00243394       0.03800704       0.02211928      -0.00243430
Cl       3.14471742      -0.07528662       1.58128280       0.03660059       0.00945780       0.06259798       0.03660099       0.00946055       0.06259847
H        0.68925932      -0.50024688       0.82103346       0.01982378       0.00450201      -0.07101091       0.01982172       0.00450521      -0.07101393
N        1.08363642      -0.83670827      -1.18831213      -0.03554554      -0.05601282       0.00788001      -0.03552709      -0.05579813       0.00771505
O        1.56517703      -0.23889290      -2.14880241      -0.08506617       0.03631191      -0.01810298      -0.08506387       0.03624884      -0.01799942
O        1.11039453      -2.05061289      -1.02539936      -0.02450065      -0.01801559      -0.02055717      -0.02451216      -0.01813324      -0.02050151
N        0.58106558       1.91356808       1.23537255      -0.00838382       0.02384031       0.00087206      -0.00839588       0.02384173       0.00087877
H        0.75682649       2.91267552       1.24411832      -0.00553003       0.03260975      -0.00220259      -0.00552764       0.03261609      -0.00220577
H        1.33201083       1.48257472       1.77854113      -0.03720128       0.00952404       0.03391719      -0.03719552       0.00951658       0.03391878
C        0.05150611       2.32320476      -1.12152141       0.00543260      -0.02106284       0.01303645       0.00542442      -0.02106220       0.01302380
H        0.04562545       1.89474193      -2.12423973       0.02424056      -0.01780420       0.01913990       0.02424335      -0.01780510       0.01914759
H       -0.97547928       2.49216799      -0.79194272       0.00160820      -0.02577047       0.00656880       0.00160937      -0.02577018       0.00656974
H        0.56099840       3.29218720      -1.16888152      -0.02197140      -0.02215227      -0.00999659      -0.02196825      -0.02215168      -0.00999509
16
Properties=species:S:1:pos:R:3:mp2_forces:R:3:forces:R:3 R1=NO2 R2=H R3=NH2 R4=CH3 lg=Br nu=Cl rxn-id=989 mp2_energy=-92797.09088388218 energy=-92797.1611844621 free_energy=-92797.09088966726 pbc="F F F"
C        0.50410871      -0.04104271      -0.12958682       0.03516372       0.01185936      -0.04819148       0.00297242       0.00128461      -0.00063209
C        0.84434922       1.43941329      -0.15358179       0.02653312       0.00401748       0.00046618       0.00080566       0.00174108      -0.00244632
H        1.91526451       1.45702993      -0.40514279       0.03078373       0.00656807       0.02801710      -0.00010245       0.00329006      -0.00601688
Br      -1.38839675      -0.39417157       0.09224522       0.03801257       0.02212746      -0.00243394       0.00405985      -0.00134124       0.00453441
Cl       2.97295590      -0.03814834       2.16636691       0.03660059       0.00945780       0.06259798      -0.01331700      -0.01177138       0.01578351
H        1.03544011      -0.51074359       0.70355658       0.01982378       0.00450201      -0.07101091       0.00564047       0.00262605      -0.00138495
N        0.95676817      -0.79172036      -1.36101235      -0.03554554      -0.05601282       0.00788001       0.00129245       0.00117709      -0.00118523
O        1.49843373      -0.15278911      -2.26380049      -0.08506617       0.03631191      -0.01810298      -0.00057693       0.00126889      -0.00216028
O        0.79298079      -2.00556389      -1.36270454      -0.02450065      -0.01801559      -0.02055717       0.00227664       0.00116025      -0.00049488
N        0.58039775       1.94827143       1.19418514      -0.00838382       0.02384031       0.00087206       0.00406682       0.00224969      -0.00186619
H        0.81388819       2.93634752       1.19553151      -0.00553003       0.03260975      -0.00220259       0.00822872       0.00126854      -0.00125669
H        1.23846038       1.48775517       1.81867677      -0.03720128       0.00952404       0.03391719       0.00130713      -0.00104895      -0.00149822
C        0.06530615       2.26975944      -1.16015938       0.00543260      -0.02106284       0.01303645      -0.00335904      -0.00013342      -0.00058256
H        0.11596371       1.84772260      -2.16300351       0.02424056      -0.01780420       0.01913990      -0.00561947      -0.00078033      -0.00037502
H       -0.97879335       2.33969195      -0.84958520       0.00160820      -0.02577047       0.00656880      -0.00252710      -0.00152541       0.00231838
H        0.48781708       3.27858922      -1.19152240      -0.02197140      -0.02215227      -0.00999659      -0.00514818       0.00053447      -0.00273698
16
Properties=species:S:1:pos:R:3:mp2_forces:R:3:forces:R:3 R1=NO2 R2=H R3=NH2 R4=CH3 lg=Br nu=Cl rxn-id=989 mp2_energy=-92797.09088388218 energy=-92797.1635616525 free_energy=-92797.09088966726 pbc="F F F"
C        0.51209528      -0.03757030      -0.13131818       0.03516372       0.01185936      -0.04819148       0.00290560       0.00108189      -0.00059692
C        0.84613178       1.44425601      -0.16008182       0.02653312       0.00401748       0.00046618       0.00083752       0.00149826      -0.00234480
H        1.91477113       1.46635732      -0.42102260       0.03078373       0.00656807       0.02801710      -0.00012783       0.00307087      -0.00568106
Br      -1.37765340      -0.39779304       0.10286159       0.03801257       0.02212746      -0.00243394       0.00406319      -0.00124971       0.00438447
Cl       2.93858353      -0.07291671       2.20797993       0.03660059       0.00945780       0.06259798      -0.01299990      -0.00952485       0.01506069
H        1.05002533      -0.50361148       0.70029008       0.01982378       0.00450201      -0.07101091       0.00520097       0.00218611      -0.00127790
N        0.96129384      -0.78843768      -1.36363932      -0.03554554      -0.05601282       0.00788001       0.00094980       0.00113555      -0.00113033
O        1.49728724      -0.14896406      -2.26963221      -0.08506617       0.03631191      -0.01810298      -0.00158190       0.00079194      -0.00225963
O        0.80154097      -2.00287484      -1.36315725      -0.02450065      -0.01801559      -0.02055717       0.00210241       0.00149862      -0.00078138
N        0.59048406       1.95420292       1.18926735      -0.00838382       0.02384031       0.00087206       0.00397297       0.00189428      -0.00179362
H        0.83376325       2.93991406       1.19181334      -0.00553003       0.03260975      -0.00220259       0.00817597       0.00070794      -0.00137419
H        1.24175897       1.48562530       1.81494105      -0.03720128       0.00952404       0.03391719       0.00123400      -0.00117710      -0.00138263
C        0.05601463       2.26979663      -1.16169738       0.00543260      -0.02106284       0.01303645      -0.00297494      -0.00018888      -0.00048838
H        0.09674441       1.84361001      -2.16338101       0.02424056      -0.01780420       0.01913990      -0.00441154      -0.00028505      -0.00049313
H       -0.98489518       2.33976348      -0.84067644       0.00160820      -0.02577047       0.00656880      -0.00230639      -0.00205001       0.00181963
H        0.47699846       3.27904339      -1.20208428      -0.02197140      -0.02215227      -0.00999659      -0.00503992       0.00061014      -0.00166082
16
Properties=species:S:1:pos:R:3:mp2_forces:R:3:forces:R:3 R1=NO2 R2=H R3=NH2 R4=CH3 lg=Br nu=Cl rxn-id=989 mp2_energy=-92797.09088388218 energy=-92797.17256523056 free_energy=-92797.09088966726 pbc="F F F"
C        0.54464376      -0.01775455      -0.15271863       0.03516372       0.01185936      -0.04819148       0.00225896       0.00028626       0.00015112
C        0.85898303       1.46790443      -0.20703354       0.02653312       0.00401748       0.00046618       0.00060274       0.00049407      -0.00047477
H        1.90842392       1.50532849      -0.53564577       0.03078373       0.00656807       0.02801710       0.00081735       0.00139173       0.00011246
Br      -1.34432030      -0.40863314       0.07384521       0.03801257       0.02212746      -0.00243394       0.00349595      -0.00082859       0.00879748
Cl       2.69292125      -0.24212742       2.47992068       0.03660059       0.00945780       0.06259798      -0.00524962      -0.00322771       0.00248469
H        1.07708728      -0.47027147       0.69199810       0.01982378       0.00450201      -0.07101091       0.00555546       0.00077746      -0.00136734
N        1.00342809      -0.78132545      -1.36926218      -0.03554554      -0.05601282       0.00788001      -0.00119703       0.00046751      -0.00127187
O        1.31946443      -0.14500896      -2.37608994      -0.08506617       0.03631191      -0.01810298      -0.00269646       0.00070611      -0.00170012
O        1.04531897      -2.00134959      -1.26795943      -0.02450065      -0.01801559      -0.02055717      -0.00149121       0.00040398      -0.00221489
N        0.67965130       1.98061941       1.15565354      -0.00838382       0.02384031       0.00087206      -0.00094579       0.00036040      -0.00045827
H        1.00836435       2.94115992       1.16590364      -0.00553003       0.03260975      -0.00220259      -0.00098156       0.00034942       0.00038168
H        1.28148853       1.45008656       1.78162699      -0.03720128       0.00952404       0.03391719      -0.00240491      -0.00001392       0.00048229
C        0.00222932       2.28633446      -1.15702722       0.00543260      -0.02106284       0.01303645       0.00054200      -0.00022142      -0.00110153
H       -0.02550043       1.85161606      -2.15477630       0.02424056      -0.01780420       0.01913990       0.00150452      -0.00016802      -0.00115324
H       -1.01388535       2.35679587      -0.76466073       0.00160820      -0.02577047       0.00656880       0.00023420      -0.00085280      -0.00177910
H        0.41664614       3.29702637      -1.23331157      -0.02197140      -0.02215227      -0.00999659      -0.00004461       0.00007552      -0.00088859
16
Properties=species:S:1:pos:R:3:mp2_forces:R:3:forces:R:3 R1=NO2 R2=H R3=NH2 R4=CH3 lg=Br nu=Cl rxn-id=989 mp2_energy=-92797.09088388218 energy=-92797.15121969668 free_energy=-92797.09088966726 pbc="F F F"
C        0.50695269      -0.01349984      -0.16319777       0.03516372       0.01185936      -0.04819148       0.00175001       0.00045056      -0.00856642
C        0.85106645       1.46883704      -0.21588921       0.02653312       0.00401748       0.00046618      -0.00069110       0.00136276      -0.00382052
H        1.88283187       1.49394715      -0.59416077       0.03078373       0.00656807       0.02801710       0.00450381       0.00045025       0.00931873
Br      -1.41095484      -0.39426565      -0.15691556       0.03801257       0.02212746      -0.00243394       0.06404520      -0.01213282       0.09750437
Cl       2.68959574      -0.23705279       2.52556913       0.03660059       0.00945780       0.06259798      -0.02010065      -0.00912224      -0.00739551
H        0.95785867      -0.47129897       0.72367655       0.01982378       0.00450201      -0.07101091      -0.01545032      -0.00556102      -0.00633193
N        1.05281590      -0.78919018      -1.33589596      -0.03554554      -0.05601282       0.00788001      -0.00332729       0.00067370      -0.01143962
O        1.33032505      -0.17135951      -2.36386847      -0.08506617       0.03631191      -0.01810298      -0.01658562       0.00154304      -0.01629060
O        1.16948414      -1.99849939      -1.18291910      -0.02450065      -0.01801559      -0.02055717       0.00685754       0.00190685      -0.01170749
N        0.75121765       1.98968833       1.15075095      -0.00838382       0.02384031       0.00087206      -0.01839745      -0.00574076      -0.00200427
H        1.13440550       2.93132276       1.14085900      -0.00553003       0.03260975      -0.00220259      -0.02535970      -0.00284745       0.00645466
H        1.35778470       1.43528610       1.75440941      -0.03720128       0.00952404       0.03391719      -0.02167216      -0.00589079       0.00040709
C       -0.04000695       2.29540770      -1.12558129       0.00543260      -0.02106284       0.01303645       0.00917440       0.00672695      -0.01029763
H       -0.11081523       1.85933605      -2.12093739       0.02424056      -0.01780420       0.01913990       0.00824576       0.00577423      -0.00951610
H       -1.03892260       2.36623693      -0.68975326       0.00160820      -0.02577047       0.00656880       0.00855878       0.01881188      -0.01374293
H        0.37130556       3.30550526      -1.21568341      -0.02197140      -0.02215227      -0.00999659       0.01844880       0.00359487      -0.01257183
16
Properties=species:S:1:pos:R:3:mp2_forces:R:3:forces:R:3 R1=NO2 R2=H R3=NH2 R4=CH3 lg=Br nu=Cl rxn-id=989 mp2_energy=-92797.09088388218 energy=-92796.80902864783 free_energy=-92797.09088966726 pbc="F F F"
C        0.50407618      -0.01207070      -0.12205941       0.03516372       0.01185936      -0.04819148      -0.08058811      -0.00383438      -0.03692614
C        0.85821867       1.46589299      -0.20137745       0.02653312       0.00401748       0.00046618      -0.03326899      -0.00439135      -0.00834514
H        1.85845425       1.50273810      -0.65793082       0.03078373       0.00656807       0.02801710      -0.02008044      -0.02678764       0.01252392
Br      -1.73147038      -0.32615768      -0.67312438       0.03801257       0.02212746      -0.00243394       0.34417563      -0.09038773       0.21588059
Cl       2.76162746      -0.20310449       2.58239017       0.03660059       0.00945780       0.06259798      -0.03568780      -0.00945896      -0.02442304
H        1.03766312      -0.43959752       0.75763142       0.01982378       0.00450201      -0.07101091      -0.11717868      -0.02154378      -0.01126374
N        1.07965455      -0.79659340      -1.27327709      -0.03554554      -0.05601282       0.00788001      -0.02776875      -0.00452195      -0.02141627
O        1.43305737      -0.17952116      -2.27645227      -0.08506617       0.03631191      -0.01810298      -0.04061104      -0.00101818      -0.02205157
O        1.13429920      -2.00968185      -1.12218996      -0.02450065      -0.01801559      -0.02055717       0.02364305      -0.00358228      -0.00605194
N        0.85905047       2.02175683       1.15684738      -0.00838382       0.02384031       0.00087206      -0.03285091      -0.01472182      -0.00391270
H        1.28709386       2.94341110       1.10452323      -0.00553003       0.03260975      -0.00220259      -0.03333160      -0.01380404       0.00041125
H        1.47516174       1.46148289       1.74845771      -0.03720128       0.00952404       0.03391719      -0.02830082      -0.01683739      -0.01052246
C       -0.09771686       2.26101756      -1.06864631       0.00543260      -0.02106284       0.01303645       0.01043825       0.04414750      -0.01935314
H       -0.18312995       1.82105262      -2.06274541       0.02424056      -0.01780420       0.01913990       0.00811002       0.04585858      -0.01872808
H       -1.08547128       2.27307491      -0.59820951       0.00160820      -0.02577047       0.00656880       0.00511526       0.08916235      -0.02788229
H        0.26437587       3.28670078      -1.16337446      -0.02197140      -0.02215227      -0.00999659       0.05818492       0.03172109      -0.01793925
16
Properties=species:S:1:pos:R:3:mp2_forces:R:3:forces:R:3 R1=NO2 R2=H R3=NH2 R4=CH3 lg=Br nu=Cl rxn-id=989 mp2_energy=-92797.09088388218 energy=-92796.92057120256 free_energy=-92797.09088966726 pbc="F F F"
C        0.78923609      -0.00148129       0.00886486       0.03516372       0.01185936      -0.04819148       0.00466060      -0.00400572       0.00340161
C        0.97092038       1.47977573      -0.17178262       0.02653312       0.00401748       0.00046618      -0.00065580      -0.00293976       0.00211170
H        1.92936085       1.59930141      -0.69222225       0.03078373       0.00656807       0.02801710      -0.00273641       0.00081906       0.00238605
Br      -2.88699677      -0.02346115      -1.42264635       0.03801257       0.02212746      -0.00243394       0.00605495       0.03600925      -0.01937237
Cl       2.88686646      -0.16467945       2.66570136       0.03660059       0.00945780       0.06259798       0.01212848       0.01166490      -0.00077814
H        1.47939321      -0.35629121       0.79038655       0.01982378       0.00450201      -0.07101091       0.01476026       0.00328852      -0.00441807
N        1.16145545      -0.78999215      -1.20048929      -0.03554554      -0.05601282       0.00788001      -0.00225743      -0.00260591       0.00011424
O        1.53039947      -0.17922409      -2.20503964      -0.08506617       0.03631191      -0.01810298      -0.00388224      -0.00034771       0.00171044
O        1.05523453      -2.00795513      -1.10358180      -0.02450065      -0.01801559      -0.02055717      -0.00234500      -0.00401460      -0.00142568
N        0.95915307       2.06138249       1.17454699      -0.00838382       0.02384031       0.00087206      -0.00365208      -0.00314513       0.00250960
H        1.36997166       2.98795203       1.11879414      -0.00553003       0.03260975      -0.00220259      -0.01167181       0.00056615       0.00239008
H        1.56143676       1.51440395       1.78944886      -0.03720128       0.00952404       0.03391719       0.00186226       0.00182968       0.00049130
C       -0.12766263       2.11530401      -1.00475774       0.00543260      -0.02106284       0.01303645      -0.00402882      -0.00960202       0.00254745
H       -0.22165457       1.65481856      -1.99155157       0.02424056      -0.01780420       0.01913990      -0.00437832      -0.01275393       0.00365048
H       -1.09497224       2.00463076      -0.49991461       0.00160820      -0.02577047       0.00656880      -0.00174816      -0.00271824       0.00857724
H        0.09280255       3.17591653      -1.12529404      -0.02197140      -0.02215227      -0.00999659      -0.00211051      -0.01204455      -0.00389594
16
Properties=species:S:1:pos:R:3:mp2_forces:R:3:forces:R:3 R1=NO2 R2=H R3=NH2 R4=CH3 lg=Br nu=Cl rxn-id=989 mp2_energy=-92797.09088388218 energy=-92796.89035474497 free_energy=-92797.09088966726 pbc="F F F"
C        0.73743471      -0.12583274      -0.05736039       0.03516372       0.01185936      -0.04819148       0.00991069       0.00283680       0.01081352
C        0.92251714       1.36960260      -0.13713155       0.02653312       0.00401748       0.00046618       0.00038901       0.00425718       0.00059406
H        1.96471503       1.50992405      -0.46416463       0.03078373       0.00656807       0.02801710      -0.00042678       0.00782128      -0.00303277
Br      -2.97763341       0.62732317      -0.90904699       0.03801257       0.02212746      -0.00243394       0.01153039      -0.01008988      -0.01453245
Cl       3.24410736       0.27267424       2.34589141       0.03660059       0.00945780       0.06259798      -0.01339085      -0.03397484       0.00621311
H        1.37096548      -0.47897816       0.77093424       0.01982378       0.00450201      -0.07101091       0.03314477       0.01045343       0.00633948
N        1.24833448      -0.85923572      -1.24008156      -0.03554554      -0.05601282       0.00788001      -0.00399961       0.00265215       0.00069710
O        1.65151645      -0.20376432      -2.20338748      -0.08506617       0.03631191      -0.01810298      -0.00313739       0.00476158       0.00259585
O        1.22885187      -2.08467698      -1.17264902      -0.02450065      -0.01801559      -0.02055717      -0.01502561       0.00041709      -0.00739094
N        0.66984063       1.85167140       1.22237532      -0.00838382       0.02384031       0.00087206       0.00124312       0.01026016      -0.00063204
H        0.77289842       2.86070792       1.21540692      -0.00553003       0.03260975      -0.00220259       0.00846340       0.01057562      -0.00369851
H        1.41134509       1.49006632       1.82332398      -0.03720128       0.00952404       0.03391719      -0.00237104       0.00538620       0.00182472
C       -0.01422956       2.07822009      -1.09072410       0.00543260      -0.02106284       0.01303645      -0.00523746      -0.00246961       0.00021547
H       -0.01080793       1.62884862      -2.08734989       0.02424056      -0.01780420       0.01913990      -0.01256940      -0.00930789       0.00187631
H       -1.04845383       2.01332353      -0.71742775       0.00160820      -0.02577047       0.00656880      -0.00348831      -0.00122733       0.00672073
H        0.28354235       3.12052697      -1.16814566      -0.02197140      -0.02215227      -0.00999659      -0.00503492      -0.00235196      -0.00860364
16
Properties=species:S:1:pos:R:3:mp2_forces:R:3:forces:R:3 R1=NO2 R2=H R3=NH2 R4=CH3 lg=Br nu=Cl rxn-id=989 mp2_energy=-92797.09088388218 energy=-92796.86608152327 free_energy=-92797.09088966726 pbc="F F F"
C        0.50549144      -0.20863715      -0.30874228       0.03516372       0.01185936      -0.04819148       0.00572201      -0.00742079       0.00838256
C        0.90490036       1.25702043      -0.14501052       0.02653312       0.00401748       0.00046618      -0.00114301      -0.00481613       0.00340609
H        1.97670375       1.31877376      -0.35390176       0.03078373       0.00656807       0.02801710      -0.00072049      -0.00213481       0.00527115
Br      -3.23385996       0.95145466      -0.47716701       0.03801257       0.02212746      -0.00243394      -0.00433858       0.04339086      -0.00922945
Cl       3.57839503       1.09427977       2.12628289       0.03660059       0.00945780       0.06259798       0.00071204       0.01301060      -0.00101213
H        0.60862484      -0.73483139       0.63572302       0.01982378       0.00450201      -0.07101091       0.02468430      -0.00958800       0.01113560
N        1.35868273      -0.92964687      -1.26101678      -0.03554554      -0.05601282       0.00788001       0.00113317       0.00024040      -0.00516568
O        1.74229315      -0.31122559      -2.25950618      -0.08506617       0.03631191      -0.01810298      -0.00950161       0.00715519      -0.00655761
O        1.60464973      -2.10777721      -1.01525344      -0.02450065      -0.01801559      -0.02055717       0.00814135      -0.00141020      -0.01358550
N        0.58980993       1.59020244       1.23934898      -0.00838382       0.02384031       0.00087206      -0.00342849      -0.00314308       0.00284694
H        0.48492767       2.59693484       1.30223681      -0.00553003       0.03260975      -0.00220259      -0.01166050      -0.00348765       0.00020802
H        1.42713133       1.36890247       1.78706633      -0.03720128       0.00952404       0.03391719      -0.00141026       0.00427763       0.00323010
C        0.12400501       2.13063327      -1.11064973       0.00543260      -0.02106284       0.01303645      -0.00210085      -0.00869618       0.00069851
H        0.30500854       1.83509104      -2.14515592       0.02424056      -0.01780420       0.01913990      -0.00091894      -0.01072997       0.00147591
H       -0.95862246       2.05244688      -0.90209962       0.00160820      -0.02577047       0.00656880      -0.00211091      -0.00880652      -0.00001538
H        0.43680318       3.16677965      -0.98169193      -0.02197140      -0.02215227      -0.00999659      -0.00305924      -0.00784134      -0.00108913
16
Properties=species:S:1:pos:R:3:mp2_forces:R:3:forces:R:3 R1=NO2 R2=H R3=NH2 R4=CH3 lg=Br nu=Cl rxn-id=989 mp2_energy=-92797.09088388218 energy=-92796.82713126566 free_energy=-92797.09088966726 pbc="F F F"
C        0.35694286      -0.08713334      -0.51365003       0.03516372       0.01185936      -0.04819148      -0.00349177      -0.00469811       0.00060575
C        0.91746513       1.31693785      -0.20746479       0.02653312       0.00401748       0.00046618      -0.00286106      -0.00321848      -0.00220063
H        1.98333926       1.31152014      -0.43243923       0.03078373       0.00656807       0.02801710      -0.00201416      -0.00444861       0.00092697
Br      -3.19057766       0.22538179      -0.24092049       0.03801257       0.02212746      -0.00243394      -0.01384086       0.01581605       0.00469576
Cl       3.60416442       1.04535224       2.07831268       0.03660059       0.00945780       0.06259798      -0.00100610       0.01480015       0.00076728
H        0.02971356      -0.59903982       0.38165727       0.01982378       0.00450201      -0.07101091       0.02437766      -0.00970322       0.01781864
N        1.35284944      -0.94472337      -1.16876143      -0.03554554      -0.05601282       0.00788001       0.00087570      -0.00087202      -0.00436909
O        1.92078212      -0.46885533      -2.15950815      -0.08506617       0.03631191      -0.01810298      -0.00558658       0.00103408      -0.00622717
O        1.52965422      -2.07137660      -0.71353302      -0.02450065      -0.01801559      -0.02055717       0.00731561       0.00127265      -0.00170661
N        0.63779264       1.58817326       1.19376048      -0.00838382       0.02384031       0.00087206      -0.00625129      -0.00679774      -0.00164855
H        0.64823969       2.59646411       1.32234457      -0.00553003       0.03260975      -0.00220259      -0.00707136      -0.00720256       0.00176202
H        1.45003247       1.25390427       1.72619116      -0.03720128       0.00952404       0.03391719      -0.00689518      -0.00699657      -0.00116266
C        0.19243281       2.29759054      -1.11890335       0.00543260      -0.02106284       0.01303645       0.00320460       0.00128399      -0.00232151
H        0.37600908       2.05868934      -2.16958034       0.02424056      -0.01780420       0.01913990       0.00429757       0.00388179      -0.00283167
H       -0.89406757       2.23946684      -0.92458283       0.00160820      -0.02577047       0.00656880       0.00172463       0.00614847      -0.00502277
H        0.54017181       3.30804909      -0.92245966      -0.02197140      -0.02215227      -0.00999659       0.00722258      -0.00029988       0.00091424
16
Properties=species:S:1:pos:R:3:mp2_forces:R:3:forces:R:3 R1=NO2 R2=H R3=NH2 R4=CH3 lg=Br nu=Cl rxn-id=989 mp2_energy=-92797.09088388218 energy=-92796.6787327164 free_energy=-92797.09088966726 pbc="F F F"
C        0.41412696      -0.00657140      -0.49897962       0.03516372       0.01185936      -0.04819148      -0.04870748       0.03266693      -0.14085361
C        0.96255336       1.37928244      -0.17074705       0.02653312       0.00401748       0.00046618      -0.00824528       0.00275627      -0.02959840
H        2.01472719       1.39188582      -0.45043281       0.03078373       0.00656807       0.02801710      -0.00985360       0.00176552      -0.02514601
Br      -2.95847706      -0.05344280      -0.32642681       0.03801257       0.02212746      -0.00243394      -0.00426983       0.03624244       0.03499179
Cl       3.59065217       0.71931313       2.11593873       0.03660059       0.00945780       0.06259798       0.00694495       0.05338910       0.01303957
H       -0.31111593      -0.44407675       0.14148183       0.01982378       0.00450201      -0.07101091       0.06083007      -0.07152190       0.15912289
N        1.33228624      -0.91423738      -1.10678286      -0.03554554      -0.05601282       0.00788001       0.00423510      -0.00655031      -0.01244749
O        1.96651307      -0.46286606      -2.08494743      -0.08506617       0.03631191      -0.01810298       0.08110785      -0.05499064      -0.00443028
O        1.43336671      -2.07198219      -0.69763719      -0.02450065      -0.01801559      -0.02055717      -0.01637908       0.00576316       0.04761691
N        0.74195231       1.72562733       1.21867368      -0.00838382       0.02384031       0.00087206      -0.02173032      -0.05310052      -0.01682089
H        0.79681009       2.74013419       1.28550759      -0.00553003       0.03260975      -0.00220259      -0.02916258      -0.05017755       0.02094435
H        1.55309324       1.37506607       1.74918102      -0.03720128       0.00952404       0.03391719      -0.02582535      -0.06275036      -0.01941014
C        0.13458292       2.27182305      -1.09301020       0.00543260      -0.02106284       0.01303645       0.00102550       0.03954692      -0.00999605
H        0.29664034       1.97207400      -2.13160341       0.02424056      -0.01780420       0.01913990      -0.00518456       0.05126897      -0.01642271
H       -0.92812570       2.13586018      -0.85109714       0.00160820      -0.02577047       0.00656880       0.00097272       0.04361035      -0.00876540
H        0.41535837       3.31251136      -0.96865546      -0.02197140      -0.02215227      -0.00999659       0.01424191       0.03208163       0.00817547
16
Properties=species:S:1:pos:R:3:mp2_forces:R:3:forces:R:3 R1=NO2 R2=H R3=NH2 R4=CH3 lg=Br nu=Cl rxn-id=989 mp2_energy=-92797.09088388218 energy=-92796.86592100885 free_energy=-92797.09088966726 pbc="F F F"