15
Properties=species:S:1:pos:R:3:mp2_forces:R:3:forces:R:3 R1=CH3 R2=CN R3=NO2 R4=H lg=F nu=Cl rxn-id=2048 mp2_energy=-26500.326858867218 energy=-26500.32685253578 free_energy=-26500.32685253578 pbc="F F F"
C        0.72740111      -0.08396374       0.05940856      -0.02305643      -0.00196287      -0.02399046      -0.02303246      -0.00197416      -0.02398760
C        1.31929846       1.31196808       0.13075713       0.01789288      -0.03595465      -0.02233198       0.01789788      -0.03596241      -0.02233414
H        2.39340518       1.22953409       0.34954275      -0.00012187       0.00238163       0.00272553      -0.00012562       0.00238256       0.00272285
F       -0.67361543       0.03913852      -0.00435400      -0.00525085       0.02970565      -0.02614773      -0.00526686       0.02970654      -0.02614491
Cl       4.41698542       0.02934933      -0.11415062       0.00981123       0.09004044      -0.03506905       0.00981265       0.09004010      -0.03506958
H        1.16392853       1.82965927      -0.81464948      -0.01969442      -0.03980891      -0.00329660      -0.01969219      -0.03981276      -0.00328388
C        1.21600119      -0.77587121      -1.20728365      -0.01195491       0.00788983       0.03244044      -0.01195737       0.00789749       0.03244558
H        0.57644555      -0.44105245      -2.02822493       0.06883726       0.06258165      -0.00297102       0.06884094       0.06257733      -0.00296776
H        2.26058249      -0.51310960      -1.38699532       0.01650799      -0.06677098       0.06316916       0.01650397      -0.06677383       0.06316891
H        1.14652318      -1.86062734      -1.11812719      -0.09496901       0.01750421       0.01485638      -0.09496759       0.01750628       0.01485410
C        0.99234178      -0.89635241       1.25874450      -0.00358969      -0.07275670       0.06266000      -0.00360659      -0.07271640       0.06260570
N        1.09436182      -1.63216787       2.16830815       0.02686496       0.04071627      -0.05491300       0.02688081       0.04068415      -0.05487124
N        0.65025870       2.14228617       1.16585551       0.03694903      -0.01814632       0.01040001       0.03692567      -0.01803837       0.01033448
O        0.16391685       3.21492701       0.80596699       0.01084034      -0.01327277       0.00313532       0.01084897      -0.01332958       0.00314802
O        0.64226553       1.71442438       2.31755384      -0.02906650      -0.00214647      -0.02066702      -0.02906222      -0.00218695      -0.02062053
15
Properties=species:S:1:pos:R:3:mp2_forces:R:3:forces:R:3 R1=CH3 R2=CN R3=NO2 R4=H lg=F nu=Cl rxn-id=2048 mp2_energy=-26500.326858867218 energy=-26500.417814897814 free_energy=-26500.32685253578 pbc="F F F"
C        0.68282084      -0.11707828       0.06862085      -0.02305643      -0.00196287      -0.02399046       0.00140612      -0.00021616       0.00207252
C        1.28207526       1.27173437       0.11834921       0.01789288      -0.03595465      -0.02233198       0.00493211      -0.00177217       0.00537522
H        2.37293510       1.20746614       0.25718724      -0.00012187       0.00238163       0.00272553       0.00321336      -0.00311037       0.01355190
F       -0.71103970       0.01426011      -0.05410973      -0.00525085       0.02970565      -0.02614773       0.00205787       0.00400035       0.00065552
Cl       4.46943386       0.53369108      -0.33503105       0.00981123       0.09004044      -0.03506905       0.00229142       0.00801146      -0.02666077
H        1.07463159       1.78393892      -0.82085881      -0.01969442      -0.03980891      -0.00329660       0.01489371      -0.00209157       0.00310534
C        1.21958743      -0.84487867      -1.15037721      -0.01195491       0.00788983       0.03244044       0.00009165      -0.00030954       0.00173384
H        0.87910985      -0.31836015      -2.04578862       0.06883726       0.06258165      -0.00297102       0.00727042       0.00524570       0.00237331
H        2.31234847      -0.83501994      -1.11668413       0.01650799      -0.06677098       0.06316916      -0.00013673      -0.00799568       0.00443200
H        0.84299767      -1.86764237      -1.17179864      -0.09496901       0.01750421       0.01485638      -0.00802293       0.00292857      -0.00285937
C        0.92064435      -0.91941026       1.28237037      -0.00358969      -0.07275670       0.06266000      -0.00187035      -0.00177268       0.00165700
N        1.06827276      -1.65190996       2.18693635       0.02686496       0.04071627      -0.05491300      -0.00275844      -0.00144652       0.00204146
N        0.69462516       2.12521185       1.18253956       0.03694903      -0.01814632       0.01040001      -0.00475154      -0.00068764      -0.00082142
O        0.52183228       3.31216030       0.90621398       0.01084034      -0.01327277       0.00313532      -0.00685684      -0.00177681      -0.00529913
O        0.45982544       1.61397911       2.27478287      -0.02906650      -0.00214647      -0.02066702      -0.01175983       0.00099305      -0.00135743
15
Properties=species:S:1:pos:R:3:mp2_forces:R:3:forces:R:3 R1=CH3 R2=CN R3=NO2 R4=H lg=F nu=Cl rxn-id=2048 mp2_energy=-26500.326858867218 energy=-26500.41639515052 free_energy=-26500.32685253578 pbc="F F F"
C        0.68979058      -0.11227085       0.06820821      -0.02305643      -0.00196287      -0.02399046       0.00020749      -0.00040732       0.00184219
C        1.28752958       1.27812546       0.11780065       0.01789288      -0.03595465      -0.02233198       0.00465442      -0.00232093       0.00523260
H        2.37628286       1.21271719       0.26908757      -0.00012187       0.00238163       0.00272553       0.00329627      -0.00443413       0.01192126
F       -0.70545428       0.01876121      -0.04077896      -0.00525085       0.02970565      -0.02614773       0.00104005       0.00469731      -0.00184074
Cl       4.47120232       0.47148042      -0.29805418       0.00981123       0.09004044      -0.03506905       0.00339052       0.01430977      -0.02928314
H        1.08502856       1.78853942      -0.82293633      -0.01969442      -0.03980891      -0.00329660       0.01397517      -0.00238535       0.00314483
C        1.21498554      -0.83701510      -1.15693198      -0.01195491       0.00788983       0.03244044       0.00058795      -0.00099140       0.00242752
H        0.88809786      -0.29472329      -2.04816510       0.06883726       0.06258165      -0.00297102       0.00394287       0.00100879       0.00252774
H        2.30757286      -0.84901913      -1.11931869       0.01650799      -0.06677098       0.06316916       0.00037195      -0.00358720       0.00361169
H        0.81699495      -1.85133354      -1.18935456      -0.09496901       0.01750421       0.01485638      -0.00225746       0.00031091       0.00029100
C        0.93899793      -0.91627544       1.27880826      -0.00358969      -0.07275670       0.06266000      -0.00557395      -0.00223456       0.00183173
N        1.09435591      -1.64792229       2.18274498       0.02686496       0.04071627      -0.05491300      -0.00847334      -0.00239770       0.00217724
N        0.68357453       2.12578681       1.17651638       0.03694903      -0.01814632       0.01040001      -0.00274262      -0.00075411      -0.00003676
O        0.42106389       3.29043105       0.87568222       0.01084034      -0.01327277       0.00313532      -0.00082319      -0.00086033      -0.00337967
O        0.52007728       1.63086032       2.28904379      -0.02906650      -0.00214647      -0.02066702      -0.01159613       0.00004628      -0.00046751
15
Properties=species:S:1:pos:R:3:mp2_forces:R:3:forces:R:3 R1=CH3 R2=CN R3=NO2 R4=H lg=F nu=Cl rxn-id=2048 mp2_energy=-26500.326858867218 energy=-26500.40148112549 free_energy=-26500.32685253578 pbc="F F F"
C        0.69299194      -0.10784586       0.05940624      -0.02305643      -0.00196287      -0.02399046      -0.00025996      -0.00026978       0.00296518
C        1.26838064       1.29279567       0.09102974       0.01789288      -0.03595465      -0.02233198       0.00942382      -0.00443775       0.00957863
H        2.36268341       1.23669287       0.21320102      -0.00012187       0.00238163       0.00272553       0.00725762      -0.00907862       0.02326573
F       -0.70627578      -0.00076010      -0.02429701      -0.00525085       0.02970565      -0.02614773       0.00106809       0.01003190      -0.00410268
Cl       4.45088189       0.38032683      -0.13243889       0.00981123       0.09004044      -0.03506905       0.01094836       0.02514015      -0.05201439
H        1.02065980       1.80055520      -0.83981860      -0.01969442      -0.03980891      -0.00329660       0.02784330      -0.00338009       0.00512724
C        1.20889402      -0.82982731      -1.17143247      -0.01195491       0.00788983       0.03244044       0.00022070      -0.00137179       0.00401738
H        0.89226006      -0.27928126      -2.06108817       0.06883726       0.06258165      -0.00297102      -0.00062090      -0.00188243       0.00440063
H        2.30097302      -0.85908057      -1.12793407       0.01650799      -0.06677098       0.06316916       0.00006659       0.00024217       0.00219764
H        0.79644578      -1.83836194      -1.20952592      -0.09496901       0.01750421       0.01485638       0.00140570      -0.00140102       0.00414034
C        0.97656838      -0.90479077       1.26731839      -0.00358969      -0.07275670       0.06266000      -0.01172830      -0.00388671       0.00318526
N        1.14994913      -1.63531984       2.16892093       0.02686496       0.04071627      -0.05491300      -0.01734247      -0.00406105       0.00404023
N        0.69284512       2.13013925       1.17296159       0.03694903      -0.01814632       0.01040001      -0.00504066      -0.00217185       0.00012450
O        0.35751878       3.27709711       0.87584635       0.01084034      -0.01327277       0.00313532      -0.00238657      -0.00323294      -0.00701990
O        0.62532418       1.64580294       2.30020311      -0.02906650      -0.00214647      -0.02066702      -0.02085535      -0.00024019       0.00009422
15
Properties=species:S:1:pos:R:3:mp2_forces:R:3:forces:R:3 R1=CH3 R2=CN R3=NO2 R4=H lg=F nu=Cl rxn-id=2048 mp2_energy=-26500.326858867218 energy=-26500.393935996926 free_energy=-26500.32685253578 pbc="F F F"
C        0.69332895      -0.10699528       0.05576333      -0.02305643      -0.00196287      -0.02399046      -0.00019475      -0.00021604       0.00358867
C        1.25911010       1.29770778       0.08079442       0.01789288      -0.03595465      -0.02233198       0.01135203      -0.00510405       0.01135783
H        2.35549135       1.24576708       0.18933638      -0.00012187       0.00238163       0.00272553       0.00873810      -0.01070808       0.02763642
F       -0.70719629      -0.01045052      -0.02133725      -0.00525085       0.02970565      -0.02614773       0.00132883       0.01230685      -0.00390757
Cl       4.43806192       0.35112274      -0.07469472       0.00981123       0.09004044      -0.03506905       0.01520197       0.02856949      -0.06043338
H        0.99258460       1.80485946      -0.84517812      -0.01969442      -0.03980891      -0.00329660       0.03345209      -0.00416475       0.00591119
C        1.20867186      -0.82798020      -1.17613237      -0.01195491       0.00788983       0.03244044      -0.00023027      -0.00143659       0.00457744
H        0.88834152      -0.27995806      -2.06595164       0.06883726       0.06258165      -0.00297102      -0.00043330      -0.00162875       0.00541474
H        2.30086893      -0.85461790      -1.13339191       0.01650799      -0.06677098       0.06316916      -0.00076814      -0.00074622       0.00248424
H        0.79967132      -1.83810486      -1.21197176      -0.09496901       0.01750421       0.01485638       0.00025700      -0.00073896       0.00427804
C        0.98802576      -0.90045388       1.26329195      -0.00358969      -0.07275670       0.06266000      -0.01316624      -0.00447840       0.00381233
N        1.16518630      -1.63060862       2.16448495       0.02686496       0.04071627      -0.05491300      -0.01904625      -0.00475139       0.00449073
N        0.69890735       2.13211784       1.17308899       0.03694903      -0.01814632       0.01040001      -0.00650065      -0.00254609      -0.00021379
O        0.35404472       3.27794696       0.88264555       0.01084034      -0.01327277       0.00313532      -0.00497339      -0.00428678      -0.00880394
O        0.65500196       1.64778968       2.30160445      -0.02906650      -0.00214647      -0.02066702      -0.02501702      -0.00007025      -0.00019294
15
Properties=species:S:1:pos:R:3:mp2_forces:R:3:forces:R:3 R1=CH3 R2=CN R3=NO2 R4=H lg=F nu=Cl rxn-id=2048 mp2_energy=-26500.326858867218 energy=-26500.40374640504 free_energy=-26500.32685253578 pbc="F F F"
C        0.69333653      -0.10835681       0.06127596      -0.02305643      -0.00196287      -0.02399046      -0.00029910      -0.00032223       0.00246322
C        1.27313235       1.29038220       0.09463454       0.01789288      -0.03595465      -0.02233198       0.00858569      -0.00416797       0.00910330
H        2.36668737       1.23325184       0.22254434      -0.00012187       0.00238163       0.00272553       0.00582893      -0.00908679       0.02124025
F       -0.70541061       0.00406585      -0.02206450      -0.00525085       0.02970565      -0.02614773       0.00123401       0.00902450      -0.00500262
Cl       4.45790048       0.40276076      -0.15081813       0.00981123       0.09004044      -0.03506905       0.00799198       0.02180188      -0.04887020
H        1.03262745       1.79796142      -0.83830986      -0.01969442      -0.03980891      -0.00329660       0.02660685      -0.00343483       0.00539963
C        1.20624442      -0.83200443      -1.16968162      -0.01195491       0.00788983       0.03244044       0.00101442      -0.00101507       0.00369550
H        0.90768379      -0.27130470      -2.05911821       0.06883726       0.06258165      -0.00297102      -0.00542182      -0.00314479       0.00320146
H        2.29714236      -0.87995583      -1.11853739       0.01650799      -0.06677098       0.06316916       0.00242754       0.00615929       0.00003128
H        0.77539677      -1.83239924      -1.21654161      -0.09496901       0.01750421       0.01485638       0.00639179      -0.00450017       0.00653620
C        0.97522257      -0.90696137       1.26857585      -0.00358969      -0.07275670       0.06266000      -0.01215824      -0.00336427       0.00291152
N        1.15149292      -1.63753474       2.16956484       0.02686496       0.04071627      -0.05491300      -0.01898660      -0.00372788       0.00382436
N        0.68974457       2.12859296       1.17159599       0.03694903      -0.01814632       0.01040001      -0.00373961      -0.00190548       0.00048404
O        0.35270682       3.27395406       0.87018393       0.01084034      -0.01327277       0.00313532      -0.00064572      -0.00261148      -0.00526863
O        0.61619257       1.64569026       2.29904810      -0.02906650      -0.00214647      -0.02066702      -0.01883013       0.00029531       0.00025068
15
Properties=species:S:1:pos:R:3:mp2_forces:R:3:forces:R:3 R1=CH3 R2=CN R3=NO2 R4=H lg=F nu=Cl rxn-id=2048 mp2_energy=-26500.326858867218 energy=-26500.363903987156 free_energy=-26500.32685253578 pbc="F F F"
C        0.70304560      -0.09684322       0.04926390      -0.02305643      -0.00196287      -0.02399046      -0.00512267      -0.00339931       0.00457535
C        1.27098984       1.30694050       0.08788324       0.01789288      -0.03595465      -0.02233198       0.00562998      -0.00745980       0.00828638
H        2.36338896       1.24437309       0.21693521      -0.00012187       0.00238163       0.00272553       0.00423591      -0.01185551       0.02150511
F       -0.69819213       0.00437593      -0.03725886      -0.00525085       0.02970565      -0.02614773      -0.00387303       0.00439931       0.00139604
Cl       4.40441874       0.21028499      -0.05049479       0.00981123       0.09004044      -0.03506905       0.03824738       0.05569252      -0.06086695
H        1.02331271       1.82075470      -0.83915646      -0.01969442      -0.03980891      -0.00329660       0.02423465      -0.00772132       0.00245797
C        1.22162534      -0.80851100      -1.18992808      -0.01195491       0.00788983       0.03244044      -0.00503135      -0.00479925       0.00734430
H        0.70316751      -0.39543061      -2.05797678       0.06883726       0.06258165      -0.00297102       0.03730298       0.04324733      -0.00648747
H        2.29930001      -0.64827899      -1.26942714       0.01650799      -0.06677098       0.06316916       0.01311627      -0.04908429       0.04508742
H        1.01953684      -1.87747796      -1.12848606      -0.09496901       0.01750421       0.01485638      -0.06599879      -0.00362909      -0.01489840
C        0.97581093      -0.89319774       1.25882047      -0.00358969      -0.07275670       0.06266000      -0.00819223      -0.00557582       0.00436683
N        1.10120955      -1.62676793       2.16611167       0.02686496       0.04071627      -0.05491300       0.00527957      -0.00364938       0.00435267
N        0.70035056       2.13668971       1.17938444       0.03694903      -0.01814632       0.01040001      -0.00900976      -0.00281615      -0.00295851
O        0.33161732       3.27431700       0.88626831       0.01084034      -0.01327277       0.00313532      -0.00518238      -0.00381600      -0.01283560
O        0.67051857       1.65691375       2.31041316      -0.02906650      -0.00214647      -0.02066702      -0.02563654       0.00046677      -0.00132515
15
Properties=species:S:1:pos:R:3:mp2_forces:R:3:forces:R:3 R1=CH3 R2=CN R3=NO2 R4=H lg=F nu=Cl rxn-id=2048 mp2_energy=-26500.326858867218 energy=-26500.235193614684 free_energy=-26500.32685253578 pbc="F F F"
C        0.72545704      -0.08061403       0.02932031      -0.02305643      -0.00196287      -0.02399046      -0.01310226      -0.00461931       0.00454560
C        1.25177731       1.33875528       0.05528865       0.01789288      -0.03595465      -0.02233198       0.00643867      -0.01175759       0.01234605
H        2.34874302       1.29185843       0.13554656      -0.00012187       0.00238163       0.00272553       0.00630953      -0.03043287       0.04191904
F       -0.68081192      -0.00820545      -0.04509427      -0.00525085       0.02970565      -0.02614773      -0.01126677       0.00245166       0.00313357
Cl       4.24597115      -0.03503415       0.20226992       0.00981123       0.09004044      -0.03506905       0.07255753       0.06636787      -0.07380786
H        0.93215936       1.85489824      -0.84807201      -0.01969442      -0.03980891      -0.00329660       0.04458688      -0.00796537      -0.00061407
C        1.24260883      -0.78649567      -1.22198386      -0.01195491       0.00788983       0.03244044      -0.01248187      -0.00294603       0.00650355
H        0.53669881      -0.58309505      -2.02967549       0.06883726       0.06258165      -0.00297102       0.02784513       0.06791439      -0.02227869
H        2.24200562      -0.43168449      -1.46751366       0.01650799      -0.06677098       0.06316916       0.02838109      -0.05322775       0.06255890
H        1.30726207      -1.86187383      -1.06225593      -0.09496901       0.01750421       0.01485638      -0.09441635      -0.01969223      -0.01586974
C        1.00729762      -0.86890348       1.24008928      -0.00358969      -0.07275670       0.06266000      -0.00977127      -0.00594520       0.00369971
N        1.07214532      -1.60958029       2.14829900       0.02686496       0.04071627      -0.05491300       0.02690514      -0.00070271       0.00648200
N        0.73667874       2.14729213       1.19185447       0.03694903      -0.01814632       0.01040001      -0.01750290      -0.00173143      -0.00559350
O        0.32799327       3.27983331       0.93490028       0.01084034      -0.01327277       0.00313532      -0.01571246      -0.00474139      -0.02309344
O        0.79411412       1.66099129       2.31937900      -0.02906650      -0.00214647      -0.02066702      -0.03877009       0.00702794       0.00006889
15
Properties=species:S:1:pos:R:3:mp2_forces:R:3:forces:R:3 R1=CH3 R2=CN R3=NO2 R4=H lg=F nu=Cl rxn-id=2048 mp2_energy=-26500.326858867218 energy=-26500.129854215076 free_energy=-26500.32685253578 pbc="F F F"
C        0.75548919      -0.06908031       0.01926770      -0.02305643      -0.00196287      -0.02399046      -0.03075500      -0.00240546       0.00036422
C        1.24150035       1.36492013       0.03001554       0.01789288      -0.03595465      -0.02233198       0.00150462      -0.01357089       0.01450727
H        2.33810872       1.35755802       0.04894641      -0.00012187       0.00238163       0.00272553       0.00854961      -0.06896425       0.06638348
F       -0.65468846      -0.00829749      -0.05309767      -0.00525085       0.02970565      -0.02614773      -0.02733586      -0.00108988      -0.00294994
Cl       4.08567612      -0.18784399       0.35974663       0.00981123       0.09004044      -0.03506905       0.09594132       0.04261091      -0.07263120
H        0.84182130       1.87303929      -0.84579382      -0.01969442      -0.03980891      -0.00329660       0.06415965       0.00518905      -0.00803038
C        1.27043068      -0.77921991      -1.23664743      -0.01195491       0.00788983       0.03244044      -0.01980560       0.00259219       0.00360824
H        0.46955400      -0.74114875      -1.97684512       0.06883726       0.06258165      -0.00297102       0.00949509       0.04460865      -0.03308224
H        2.17452706      -0.30670613      -1.61372338       0.01650799      -0.06677098       0.06316916       0.01789912      -0.01938073       0.05480200
H        1.52643354      -1.81572427      -1.02464757      -0.09496901       0.01750421       0.01485638      -0.06798396      -0.01307076      -0.00198442
C        1.02610394      -0.85577206       1.23237558      -0.00358969      -0.07275670       0.06266000      -0.01702301       0.00032200      -0.00158946
N        1.00611566      -1.60736713       2.13440387       0.02686496       0.04071627      -0.05491300       0.05199549       0.00501250       0.00919649
N        0.77427119       2.15049032       1.20430226       0.03694903      -0.01814632       0.01040001      -0.02301241       0.00298684      -0.00576476
O        0.34905929       3.28451026       0.98346945       0.01084034      -0.01327277       0.00313532      -0.02332839      -0.00078657      -0.02579528
O        0.88569778       1.64878425       2.32057980      -0.02906650      -0.00214647      -0.02066702      -0.04030064       0.01594640       0.00296598
15
Properties=species:S:1:pos:R:3:mp2_forces:R:3:forces:R:3 R1=CH3 R2=CN R3=NO2 R4=H lg=F nu=Cl rxn-id=2048 mp2_energy=-26500.326858867218 energy=-26500.020629037932 free_energy=-26500.32685253578 pbc="F F F"
C        0.81460349      -0.06320085       0.01877082      -0.02305643      -0.00196287      -0.02399046      -0.09130386       0.00382982      -0.01438753
C        1.24270464       1.39089084       0.00438177       0.01789288      -0.03595465      -0.02233198      -0.02662726      -0.01239061       0.00714724
H        2.32584878       1.48590805      -0.06965831      -0.00012187       0.00238163       0.00272553       0.01417711      -0.16569622       0.09164821
F       -0.60202768      -0.00074435      -0.04791346      -0.00525085       0.02970565      -0.02614773      -0.06723192      -0.02663041      -0.01343425
Cl       3.90545168      -0.27520155       0.49248828       0.00981123       0.09004044      -0.03506905       0.15264737       0.00732073      -0.04528152
H        0.72957621       1.86403806      -0.83068993      -0.01969442      -0.03980891      -0.00329660       0.07727503       0.06096852      -0.02748805
C        1.30730160      -0.78348124      -1.24368930      -0.01195491       0.00788983       0.03244044      -0.04506453       0.01154819      -0.00060105
H        0.44727345      -0.83200425      -1.91059632       0.06883726       0.06258165      -0.00297102       0.00942678      -0.00213359      -0.08461129
H        2.13521244      -0.26512296      -1.72389488       0.01650799      -0.06677098       0.06316916      -0.00101434       0.02203830       0.07996733
H        1.66231045      -1.78792294      -1.01945557      -0.09496901       0.01750421       0.01485638      -0.04658813       0.01897225       0.03260062
C        1.05627679      -0.85507875       1.23406215      -0.00358969      -0.07275670       0.06266000       0.00475631       0.01515064      -0.00819819
N        0.90464516      -1.61671378       2.11808075       0.02686496       0.04071627      -0.05491300       0.09853189       0.01729459       0.00321928
N        0.81584337       2.14439010       1.21493162       0.03694903      -0.01814632       0.01040001      -0.02616247       0.01326455      -0.00595480
O        0.37831042       3.28021048       1.02973658       0.01084034      -0.01327277       0.00313532      -0.02586780       0.01194601      -0.01583518
O        0.96676954       1.62217535       2.31579803      -0.02906650      -0.00214647      -0.02066702      -0.02695415       0.02451723       0.00120917
15
Properties=species:S:1:pos:R:3:mp2_forces:R:3:forces:R:3 R1=CH3 R2=CN R3=NO2 R4=H lg=F nu=Cl rxn-id=2048 mp2_energy=-26500.326858867218 energy=-26499.707433604744 free_energy=-26500.32685253578 pbc="F F F"
C        0.95117473      -0.06656749       0.03877389      -0.02305643      -0.00196287      -0.02399046      -0.81745503       0.05685364      -0.09328521
C        1.28549744       1.41025352      -0.00540695       0.01789288      -0.03595465      -0.02233198      -0.10107087      -0.00798902      -0.00890032
H        2.30870998       1.73014806      -0.20004923      -0.00012187       0.00238163       0.00272553       0.05097725      -0.32417956       0.07992549
F       -0.50302527       0.04303489      -0.02787645      -0.00525085       0.02970565      -0.02614773       0.17306418      -0.13221139      -0.01546206
Cl       3.67912910      -0.29284265       0.55809725       0.00981123       0.09004044      -0.03506905       0.50153788      -0.05241881       0.07451793
H        0.62228671       1.77525098      -0.79149536      -0.01969442      -0.03980891      -0.00329660       0.11323539       0.26415736      -0.06865396
C        1.37324809      -0.80022788      -1.24332743      -0.01195491       0.00788983       0.03244044      -0.14800425       0.03838043       0.01359692
H        0.43042070      -0.83303250      -1.78259027       0.06883726       0.06258165      -0.00297102       0.02801588      -0.14148231      -0.31370370
H        2.13207259      -0.29536559      -1.84693974       0.01650799      -0.06677098       0.06316916      -0.03022906       0.07616495       0.17332116
H        1.73535629      -1.81342352      -1.06734470      -0.09496901       0.01750421       0.01485638      -0.04113020       0.08611606       0.12605753
C        1.04947805      -0.88205418       1.25258715      -0.00358969      -0.07275670       0.06266000       0.18555495       0.01522595       0.00977526
N        0.75846067      -1.63741242       2.10881839       0.02686496       0.04071627      -0.05491300       0.13274455       0.01066350       0.00094270
N        0.85277174       2.12434943       1.22328316       0.03694903      -0.01814632       0.01040001      -0.01130384       0.04265615       0.00473483
O        0.40313537       3.25746732       1.05168566       0.01084034      -0.01327277       0.00313532      -0.02110860       0.03845588       0.01300596
O        1.01138418       1.58856427       2.31413686      -0.02906650      -0.00214647      -0.02066702      -0.01482822       0.02960717       0.00412746
15
Properties=species:S:1:pos:R:3:mp2_forces:R:3:forces:R:3 R1=CH3 R2=CN R3=NO2 R4=H lg=F nu=Cl rxn-id=2048 mp2_energy=-26500.326858867218 energy=-26498.847299361634 free_energy=-26500.32685253578 pbc="F F F"
C        1.15758987      -0.08105257       0.06265718      -0.02305643      -0.00196287      -0.02399046      -2.10335246       0.18142965      -0.25780592
C        1.31257514       1.41226577      -0.00327255       0.01789288      -0.03595465      -0.02233198       0.07311766       0.03597190       0.03010709
H        2.29626156       1.81289648      -0.21915472      -0.00012187       0.00238163       0.00272553       0.09008801      -0.17731087       0.04500836
F       -0.54469554       0.07729825      -0.02315396      -0.00525085       0.02970565      -0.02614773       0.80261330      -0.14391638      -0.01948268
Cl       3.55195044      -0.28048469       0.53868597       0.00981123       0.09004044      -0.03506905       0.51836072      -0.05358306       0.08973082
H        0.59495215       1.70816135      -0.77434846      -0.01969442      -0.03980891      -0.00329660       0.10789394       0.22194052      -0.04240391
C        1.41121178      -0.81003191      -1.24708947      -0.01195491       0.00788983       0.03244044      -0.04552152       0.01263836       0.01919441
H        0.42244076      -0.79712820      -1.70230612       0.06883726       0.06258165      -0.00297102       0.05132352      -0.13329480      -0.27482262
H        2.13893847      -0.31474903      -1.89130276       0.01650799      -0.06677098       0.06316916       0.00356930       0.03656073       0.11204733
H        1.74562213      -1.83523623      -1.09945752      -0.09496901       0.01750421       0.01485638       0.00795515       0.05613223       0.08600740
C        1.00228604      -0.88544357       1.24964812      -0.00358969      -0.07275670       0.06266000       0.44322538      -0.06258981       0.15271258