16
Properties=species:S:1:pos:R:3:mp2_forces:R:3:forces:R:3 R1=NH2 R2=NH2 R3=NH2 R4=CN lg=F nu=F rxn-id=2778 mp2_energy=-14590.201106302156 energy=-14590.201106302156 free_energy=-14590.201106302156 pbc="F F F"
C        0.70585360       0.01471683       0.00785372      -0.00252055       0.06558836      -0.00633522      -0.00252055       0.06558836      -0.00633522
C        1.10887567       1.49276364      -0.14163592      -0.05464479      -0.02857257      -0.01849105      -0.05464479      -0.02857257      -0.01849105
H        2.19850633       1.44522363      -0.28898015      -0.07805669      -0.01427855       0.01165751      -0.07805669      -0.01427855       0.01165751
F       -0.68618682      -0.05990094       0.17169848       0.04656442      -0.02305570      -0.01383473       0.04656442      -0.02305570      -0.01383473
F        3.50047382      -0.08239427      -0.23330390       0.01462564      -0.04968397       0.01272527       0.01462564      -0.04968397       0.01272527
N        1.05386176      -0.67399107      -1.20238462       0.02882885       0.00204801      -0.00394095       0.02882885       0.00204801      -0.00394095
H        0.80368114      -1.65115851      -1.07784465      -0.05052076      -0.02189386      -0.02572204      -0.05052076      -0.02189386      -0.02572204
H        2.08840733      -0.61936787      -1.16675637       0.02843413       0.03193446       0.00032700       0.02843413       0.03193446       0.00032700
N        1.30674746      -0.46247304       1.23110976       0.04605326       0.00792369       0.01658111       0.04605326       0.00792369       0.01658111
H        2.31248804      -0.44913945       0.96576777       0.04837921       0.02382959      -0.02549460       0.04837921       0.02382959      -0.02549460
H        1.03481107      -1.43574441       1.33564065      -0.04512150      -0.00811754       0.03171956      -0.04512150      -0.00811754       0.03171956
N        0.78566182       2.30981019       1.03093556      -0.00895328      -0.03526256      -0.02868940      -0.00895328      -0.03526256      -0.02868940
H        1.22702884       1.82439074       1.80720837      -0.00328764       0.02466073      -0.00775531      -0.00328764       0.02466073      -0.00775531
H       -0.21310426       2.19609419       1.18386051       0.00116258       0.02447783       0.03965316       0.00116258       0.02447783       0.03965316
C        0.45682611       2.07592217      -1.31972319       0.03708666      -0.05243193       0.06501157       0.03708666      -0.05243193       0.06501157
N       -0.09375920       2.58604024      -2.22140479      -0.00802953       0.05283402      -0.04741190      -0.00802953       0.05283402      -0.04741190
16
Properties=species:S:1:pos:R:3:mp2_forces:R:3:forces:R:3 R1=NH2 R2=NH2 R3=NH2 R4=CN lg=F nu=F rxn-id=2778 mp2_energy=-14590.201106302156 energy=-14590.211477217716 free_energy=-14590.201106302156 pbc="F F F"
C        0.71129041       0.01427418       0.01447773      -0.00252055       0.06558836      -0.00633522      -0.00220026      -0.00084460      -0.00282769
C        1.08260545       1.49409705      -0.12386223      -0.05464479      -0.02857257      -0.01849105       0.00070385      -0.00154938      -0.00356342
H        2.16856727       1.48374812      -0.24367812      -0.07805669      -0.01427855       0.01165751       0.00037772      -0.00605959      -0.00946200
F       -0.67384898      -0.08557043       0.20504269       0.04656442      -0.02305570      -0.01383473      -0.00304344       0.00024289      -0.01019833
F        3.51037446      -0.19200941      -0.28090032       0.01462564      -0.04968397       0.01272527      -0.00100840       0.01783702       0.01068232
N        1.04645145      -0.65922286      -1.20907599       0.02882885       0.00204801      -0.00394095       0.00410481      -0.00264142      -0.00041785
H        0.76098472      -1.63021298      -1.10628430      -0.05052076      -0.02189386      -0.02572204       0.00856716      -0.00379968       0.00148781
H        2.08664440      -0.63144012      -1.17444779       0.02843413       0.03193446       0.00032700       0.00360946       0.00264168       0.00179049
N        1.35019532      -0.45091579       1.22719033       0.04605326       0.00792369       0.01658111      -0.00927106      -0.00098281       0.00081054
H        2.35001002      -0.46513949       0.92347369       0.04837921       0.02382959      -0.02549460      -0.00762459       0.00132591       0.00783016
H        1.05635455      -1.41272495       1.36604459      -0.04512150      -0.00811754       0.03171956      -0.00996401      -0.00129664      -0.00103844
N        0.70902295       2.32016086       1.02928253      -0.00895328      -0.03526256      -0.02868940       0.01193076      -0.00138770      -0.00005206
H        1.22443088       1.94609926       1.81389981      -0.00328764       0.02466073      -0.00775531       0.01217488      -0.01010877      -0.00377853
H       -0.26617894       2.10929401       1.22852772       0.00116258       0.02447783       0.03965316       0.01134236       0.00631677       0.00345076
C        0.47648872       2.07106291      -1.32827810       0.03708666      -0.05243193       0.06501157      -0.00664659       0.00047605       0.00029792
N       -0.00321996       2.59929170      -2.25937099      -0.00802953       0.05283402      -0.04741190      -0.01305265      -0.00016975       0.00498832
16
Properties=species:S:1:pos:R:3:mp2_forces:R:3:forces:R:3 R1=NH2 R2=NH2 R3=NH2 R4=CN lg=F nu=F rxn-id=2778 mp2_energy=-14590.201106302156 energy=-14590.206230491272 free_energy=-14590.201106302156 pbc="F F F"
C        0.71645406       0.01502193       0.02273825      -0.00252055       0.06558836      -0.00633522      -0.00404414      -0.00107382      -0.00407153
C        1.08355158       1.49613499      -0.11424171      -0.05464479      -0.02857257      -0.01849105       0.00050835      -0.00235609      -0.00545614
H        2.17063907       1.49286312      -0.22013039      -0.07805669      -0.01427855       0.01165751       0.00007668      -0.01045690      -0.01408877
F       -0.66644563      -0.08492351       0.23254798       0.04656442      -0.02305570      -0.01383473      -0.00511245      -0.00013557      -0.01408397
F        3.51021445      -0.21625261      -0.31305302       0.01462564      -0.04968397       0.01272527      -0.00112799       0.02741917       0.01460917
N        1.03334863      -0.65586055      -1.20648413       0.02882885       0.00204801      -0.00394095       0.00551055      -0.00364792      -0.00028540
H        0.74396177      -1.62566711      -1.10271895      -0.05052076      -0.02189386      -0.02572204       0.01196023      -0.00514790       0.00197129
H        2.07434977      -0.63417326      -1.18405065       0.02843413       0.03193446       0.00032700       0.00480917       0.00418707       0.00343696
N        1.37229691      -0.45268123       1.22567655       0.04605326       0.00792369       0.01658111      -0.01290700       0.00023449       0.00099713
H        2.36768509      -0.47057646       0.90592687       0.04837921       0.02382959      -0.02549460      -0.01081103       0.00292479       0.00968014
H        1.07933335      -1.41425318       1.36676445      -0.04512150      -0.00811754       0.03171956      -0.01415805       0.00057691       0.00109779
N        0.68542350       2.32394670       1.02961856      -0.00895328      -0.03526256      -0.02868940       0.01743697      -0.00321238       0.00069899
H        1.18730183       1.95901999       1.82652915      -0.00328764       0.02466073      -0.00775531       0.01686913      -0.01863715      -0.00572894
H       -0.29343860       2.11020002       1.21039168       0.00116258       0.02447783       0.03965316       0.01671641       0.00824953       0.00513584
C        0.49476050       2.06964144      -1.32939667       0.03708666      -0.05243193       0.06501157      -0.00880845       0.00094270       0.00041889
N        0.03073642       2.59835178      -2.26807674      -0.00802953       0.05283402      -0.04741190      -0.01691838       0.00013309       0.00566854
16
Properties=species:S:1:pos:R:3:mp2_forces:R:3:forces:R:3 R1=NH2 R2=NH2 R3=NH2 R4=CN lg=F nu=F rxn-id=2778 mp2_energy=-14590.201106302156 energy=-14590.214076949209 free_energy=-14590.201106302156 pbc="F F F"
C        0.70930904       0.01541986       0.00643822      -0.00252055       0.06558836      -0.00633522      -0.00176334      -0.00181628      -0.00161819
C        1.08281322       1.49416927      -0.13232675      -0.05464479      -0.02857257      -0.01849105      -0.00074646      -0.00136658      -0.00217981
H        2.16772950       1.48114048      -0.26250470      -0.07805669      -0.01427855       0.01165751      -0.00109176      -0.00382942      -0.00661413
F       -0.67773472      -0.08464327       0.17941887       0.04656442      -0.02305570      -0.01383473      -0.00188842      -0.00186126      -0.00643799
F        3.51272416      -0.17657806      -0.25256288       0.01462564      -0.04968397       0.01272527      -0.00438867       0.00800676       0.00892734
N        1.06092099      -0.65996892      -1.21180227       0.02882885       0.00204801      -0.00394095       0.00091981      -0.00264080      -0.00101697
H        0.76734231      -1.62863955      -1.11529904      -0.05052076      -0.02189386      -0.02572204       0.01219022      -0.00665748       0.00459793
H        2.10068751      -0.63554534      -1.16086873       0.02843413       0.03193446       0.00032700      -0.00003570       0.00654674      -0.00534119
N        1.33294449      -0.44704378       1.22768088       0.04605326       0.00792369       0.01658111      -0.00844001      -0.00297270       0.00153365
H        2.33611686      -0.46476831       0.93578452       0.04837921       0.02382959      -0.02549460      -0.00671429       0.00461513       0.01102392
H        1.03153999      -1.40565791       1.36968637      -0.04512150      -0.00811754       0.03171956      -0.00245057      -0.00737856      -0.00682335
N        0.72419781       2.31590026       1.02849315      -0.00895328      -0.03526256      -0.02868940       0.00939627       0.00112003      -0.00042907
H        1.25973055       1.94457471       1.80085940      -0.00328764       0.02466073      -0.00775531       0.00916032      -0.00484337      -0.00241848
H       -0.24329772       2.09195505       1.24817270       0.00116258       0.02447783       0.03965316       0.00812193       0.01160350       0.00326964
C        0.46078348       2.07253174      -1.32761235       0.03708666      -0.05243193       0.06501157      -0.00472125       0.00008786       0.00090221
N       -0.03563477       2.59794584      -2.25151616      -0.00802953       0.05283402      -0.04741190      -0.00754809       0.00138643       0.00262450
16
Properties=species:S:1:pos:R:3:mp2_forces:R:3:forces:R:3 R1=NH2 R2=NH2 R3=NH2 R4=CN lg=F nu=F rxn-id=2778 mp2_energy=-14590.201106302156 energy=-14590.211604353815 free_energy=-14590.201106302156 pbc="F F F"
C        0.71653233       0.01901897       0.00741556      -0.00252055       0.06558836      -0.00633522      -0.00803953      -0.00388621      -0.00111306
C        1.08798836       1.49779087      -0.13078813      -0.05464479      -0.02857257      -0.01849105      -0.00574372      -0.00398144      -0.00185046
H        2.17347297       1.49109186      -0.25570912      -0.07805669      -0.01427855       0.01165751      -0.00628908      -0.01134720      -0.00845246
F       -0.67033600      -0.07844915       0.18520919       0.04656442      -0.02305570      -0.01383473      -0.00746165      -0.00749006      -0.00631010
F        3.51541556      -0.18356012      -0.26219000       0.01462564      -0.04968397       0.01272527      -0.00518541       0.00113490       0.01190753
N        1.06071576      -0.65697990      -1.21220066       0.02882885       0.00204801      -0.00394095      -0.00102678      -0.00268531      -0.00060670
H        0.74821640      -1.61989802      -1.12201712      -0.05052076      -0.02189386      -0.02572204       0.02507240      -0.01259168       0.00992543
H        2.10063827      -0.64688876      -1.16039271       0.02843413       0.03193446       0.00032700      -0.00048656       0.01793915      -0.00521277
N        1.34264725      -0.44288240       1.22757379       0.04605326       0.00792369       0.01658111      -0.01254080      -0.00380957       0.00140142
H        2.34411964      -0.47239173       0.93055686       0.04837921       0.02382959      -0.02549460      -0.00947294       0.01339911       0.00933284
H        1.02890995      -1.39523653       1.37993723      -0.04512150      -0.00811754       0.03171956       0.00460197      -0.01435382      -0.01379748
N        0.71269372       2.31340304       1.02947544      -0.00895328      -0.03526256      -0.02868940       0.01383245       0.00372547      -0.00046867
H        1.24819361       1.94860662       1.80428681      -0.00328764       0.02466073      -0.00775531       0.01303133      -0.00625772      -0.00352267
H       -0.25250132       2.07202136       1.24261215       0.00116258       0.02447783       0.03965316       0.00984522       0.02422969       0.00709514
C        0.46713185       2.07248620      -1.32858891       0.03708666      -0.05243193       0.06501157      -0.00811121       0.00084049      -0.00060262
N       -0.03366565       2.59265977      -2.25313915      -0.00802953       0.05283402      -0.04741190      -0.00202570       0.00513420       0.00227464
16
Properties=species:S:1:pos:R:3:mp2_forces:R:3:forces:R:3 R1=NH2 R2=NH2 R3=NH2 R4=CN lg=F nu=F rxn-id=2778 mp2_energy=-14590.201106302156 energy=-14590.182609058234 free_energy=-14590.201106302156 pbc="F F F"
C        0.75199893       0.03192668       0.00436820      -0.00252055       0.06558836      -0.00633522      -0.05266361      -0.00920110       0.00317709
C        1.10603332       1.51445948      -0.13142662      -0.05464479      -0.02857257      -0.01849105      -0.02492833      -0.01884006       0.00081111
H        2.19160198       1.54189172      -0.24287328      -0.07805669      -0.01427855       0.01165751      -0.02101427      -0.07235282      -0.01323474
F       -0.63363388      -0.06658659       0.18665829       0.04656442      -0.02305570      -0.01383473      -0.05216332      -0.01407414      -0.00002101
F        3.51749527      -0.17771162      -0.28245209       0.01462564      -0.04968397       0.01272527       0.01844322      -0.05331180       0.02459723
N        1.07285325      -0.65079596      -1.21733936       0.02882885       0.00204801      -0.00394095      -0.01490261       0.00628979       0.00456811
H        0.66727231      -1.57930788      -1.15828405      -0.05052076      -0.02189386      -0.02572204       0.08623621      -0.04792684       0.03065663
H        2.10738697      -0.70813819      -1.15912162       0.02843413       0.03193446       0.00032700       0.00277121       0.08988592       0.01428737
N        1.37103498      -0.42425863       1.23016663       0.04605326       0.00792369       0.01658111      -0.03169697      -0.00353635      -0.00505999
H        2.36551747      -0.51100202       0.93120716       0.04837921       0.02382959      -0.02549460      -0.01887611       0.06738592      -0.02358576
H        0.99039310      -1.34014904       1.43227622      -0.04512150      -0.00811754       0.03171956       0.04783045      -0.05442494      -0.04618706
N        0.67921839       2.29745098       1.03527995      -0.00895328      -0.03526256      -0.02868940       0.02852127       0.01602362      -0.00243139
H        1.23202883       1.95349399       1.80606129      -0.00328764       0.02466073      -0.00775531       0.02168550       0.00065142      -0.00416523
H       -0.26754865       1.98366608       1.24132031       0.00116258       0.02447783       0.03965316       0.01238710       0.07013998       0.01552704
C        0.47874755       2.07391776      -1.33341040       0.03708666      -0.05243193       0.06501157      -0.01423296       0.00454226      -0.00401734
N       -0.04022711       2.57193531      -2.26038940      -0.00802953       0.05283402      -0.04741190       0.01260322       0.01874915       0.00507792
16
Properties=species:S:1:pos:R:3:mp2_forces:R:3:forces:R:3 R1=NH2 R2=NH2 R3=NH2 R4=CN lg=F nu=F rxn-id=2778 mp2_energy=-14590.201106302156 energy=-14590.035950450214 free_energy=-14590.201106302156 pbc="F F F"
C        0.82950499       0.04518038      -0.00013945      -0.00252055       0.06558836      -0.00633522      -0.15102748      -0.01007339       0.01081258
C        1.14185533       1.54245990      -0.13146668      -0.05464479      -0.02857257      -0.01849105      -0.05525701      -0.04531472       0.00128553
H        2.22079654       1.65332142      -0.22435901      -0.07805669      -0.01427855       0.01165751      -0.02883275      -0.21411890      -0.01373592
F       -0.55638484      -0.04682354       0.18661912       0.04656442      -0.02305570      -0.01383473      -0.13877393      -0.02333423       0.00869528
F        3.49110492      -0.10148047      -0.31502100       0.01462564      -0.04968397       0.01272527       0.11740770      -0.17464231       0.03785150
N        1.09835364      -0.65975078      -1.22292466       0.02882885       0.00204801      -0.00394095      -0.04283563       0.03192859       0.01619631
H        0.54145403      -1.50704658      -1.20527457      -0.05052076      -0.02189386      -0.02572204       0.15008351      -0.11729756       0.03532802
H        2.10756730      -0.84214941      -1.17279993       0.02843413       0.03193446       0.00032700       0.02893699       0.25004430       0.07329914
N        1.41602198      -0.42364689       1.23642155       0.04605326       0.00792369       0.01658111      -0.06644402       0.01785361      -0.01899053
H        2.39139080      -0.61665429       0.96300221       0.04837921       0.02382959      -0.02549460      -0.02354156       0.20619866      -0.12072388
H        0.91591840      -1.26461049       1.49438819      -0.04512150      -0.00811754       0.03171956       0.10504836      -0.11349684      -0.05544822
N        0.63741239       2.27663120       1.03737486      -0.00895328      -0.03526256      -0.02868940       0.04245636       0.02881823      -0.00031304
H        1.20518157       1.96493983       1.81073212      -0.00328764       0.02466073      -0.00775531       0.03365408       0.00540520      -0.00763147
H       -0.28229710       1.87908503       1.22125836       0.00116258       0.02447783       0.03965316       0.00989574       0.11277073       0.04077874
C        0.49117167       2.07159226      -1.33568500       0.03708666      -0.05243193       0.06501157      -0.00220340       0.00474118       0.00066260
N       -0.05887891       2.53974451      -2.26008487      -0.00802953       0.05283402      -0.04741190       0.02143304       0.04051746      -0.00806664
16
Properties=species:S:1:pos:R:3:mp2_forces:R:3:forces:R:3 R1=NH2 R2=NH2 R3=NH2 R4=CN lg=F nu=F rxn-id=2778 mp2_energy=-14590.201106302156 energy=-14589.778274161969 free_energy=-14590.201106302156 pbc="F F F"
C        0.91560231       0.05097206      -0.00707463      -0.00252055       0.06558836      -0.00633522      -0.25977140      -0.01154757       0.02422039
C        1.17339502       1.56841854      -0.13323475      -0.05464479      -0.02857257      -0.01849105      -0.06335465      -0.06782679       0.00185836
H        2.23695265       1.77604876      -0.21926262      -0.07805669      -0.01427855       0.01165751      -0.00562800      -0.32375803      -0.00159201
F       -0.47770170      -0.03360179       0.17922931       0.04656442      -0.02305570      -0.01383473      -0.19690192      -0.02123305       0.02073172
F        3.42676466      -0.00040160      -0.33364608       0.01462564      -0.04968397       0.01272527       0.28034299      -0.21526662       0.02084257
N        1.12392318      -0.67769291      -1.23237660       0.02882885       0.00204801      -0.00394095      -0.07111424       0.04188010       0.03771199
H        0.45621294      -1.43984163      -1.22660151      -0.05052076      -0.02189386      -0.02572204       0.14672290      -0.17583469      -0.01663656
H        2.09232684      -0.98416139      -1.21515212       0.02843413       0.03193446       0.00032700       0.06284695       0.36342636       0.16934934
N        1.45178180      -0.43365252       1.24717374       0.04605326       0.00792369       0.01658111      -0.10260082       0.02647466      -0.03209399
H        2.40329459      -0.73438030       1.03441785       0.04837921       0.02382959      -0.02549460      -0.02524250       0.30670079      -0.24312505
H        0.85181253      -1.19885880       1.52649464      -0.04512150      -0.00811754       0.03171956       0.12019055      -0.16003483      -0.00439232
N        0.61496639       2.25924069       1.03758841      -0.00895328      -0.03526256      -0.02868940       0.04347228       0.03430773       0.00096494
H        1.18957024       1.96171787       1.81403669      -0.00328764       0.02466073      -0.00775531       0.03857964       0.01049459      -0.01512951
H       -0.28523063       1.81330434       1.20036313       0.00116258       0.02447783       0.03965316      -0.00050989       0.12864294       0.06036266
C        0.49234001       2.06705527      -1.33297616       0.03708666      -0.05243193       0.06501157       0.00012166       0.03025826      -0.03584598
N       -0.07583813       2.51662549      -2.25693809      -0.00802953       0.05283402      -0.04741190       0.03284648       0.03331615       0.01277346
16
Properties=species:S:1:pos:R:3:mp2_forces:R:3:forces:R:3 R1=NH2 R2=NH2 R3=NH2 R4=CN lg=F nu=F rxn-id=2778 mp2_energy=-14590.201106302156 energy=-14589.586062335677 free_energy=-14590.201106302156 pbc="F F F"
C        0.97233625       0.05326662      -0.01244553      -0.00252055       0.06558836      -0.00633522      -0.42042637      -0.01588926       0.05016313
C        1.18736149       1.58280416      -0.13317230      -0.05464479      -0.02857257      -0.01849105      -0.05898778      -0.06918298      -0.00676203
H        2.23819763       1.84609901      -0.21935383      -0.07805669      -0.01427855       0.01165751       0.02056878      -0.34397680       0.00342925
F       -0.43462147      -0.02928872       0.17400981       0.04656442      -0.02305570      -0.01383473      -0.16142854      -0.01251128       0.02238940
F        3.36598201       0.04596535      -0.33737179       0.01462564      -0.04968397       0.01272527       0.46697776      -0.19092487      -0.01220384
N        1.14001588      -0.68667457      -1.24087957       0.02882885       0.00204801      -0.00394095      -0.09830602       0.04470865       0.04586640
H        0.42474062      -1.40131264      -1.22391810      -0.05052076      -0.02189386      -0.02572204       0.12083385      -0.22034652      -0.08487082
H        2.07915718      -1.06317482      -1.25194968       0.02843413       0.03193446       0.00032700       0.07655639       0.38848189       0.23744649
N        1.47354469      -0.43944250       1.25431044       0.04605326       0.00792369       0.01658111      -0.13378216       0.03038010      -0.03060912
H        2.40826165      -0.80101251       1.08801399       0.04837921       0.02382959      -0.02549460      -0.02922059       0.32310409      -0.31279117
H        0.82476973      -1.16400874       1.52714255      -0.04512150      -0.00811754       0.03171956       0.11542202      -0.19054312       0.06465566
N        0.60589922       2.25194865       1.03747316      -0.00895328      -0.03526256      -0.02868940       0.03765461       0.03332906      -0.00084574
H        1.18220071       1.96038787       1.81710415      -0.00328764       0.02466073      -0.00775531       0.03817640       0.00958657      -0.02173747
H       -0.28454583       1.78563187       1.18811923       0.00116258       0.02447783       0.03965316      -0.01453110       0.13545314       0.07559510
C        0.48832906       2.06257606      -1.33026968       0.03708666      -0.05243193       0.06501157       0.02970239       0.03914396      -0.02104601
N       -0.08145610       2.50702699      -2.25477160      -0.00802953       0.05283402      -0.04741190       0.01079036       0.03918736      -0.00867925
16
Properties=species:S:1:pos:R:3:mp2_forces:R:3:forces:R:3 R1=NH2 R2=NH2 R3=NH2 R4=CN lg=F nu=F rxn-id=2778 mp2_energy=-14590.201106302156 energy=-14589.097456980617 free_energy=-14590.201106302156 pbc="F F F"
C        1.11176929       0.05843044      -0.02932393      -0.00252055       0.06558836      -0.00633522      -1.54761680      -0.10143436       0.23169772
C        1.20691374       1.60569180      -0.13117899      -0.05464479      -0.02857257      -0.01849105      -0.04598701      -0.02966255      -0.01968538
H        2.23127827       1.96016599      -0.22165530      -0.07805669      -0.01427855       0.01165751       0.03973878      -0.25894410       0.00549141
F       -0.38090787      -0.02524550       0.16543594       0.04656442      -0.02305570      -0.01383473       0.82404209       0.06238972      -0.10823857
F        3.21190584       0.10885743      -0.33180982       0.01462564      -0.04968397       0.01272527       0.82540419      -0.11011042      -0.08681162
N        1.17365392      -0.70136931      -1.25628444       0.02882885       0.00204801      -0.00394095      -0.15035820       0.06786401       0.04066466
H        0.38523632      -1.32778677      -1.19721863      -0.05052076      -0.02189386      -0.02572204       0.08727438      -0.28240241      -0.21885433
H        2.05472259      -1.19210760      -1.33030178       0.02843413       0.03193446       0.00032700       0.04752194       0.30414615       0.29427844
N        1.51694045      -0.44974251       1.26447382       0.04605326       0.00792369       0.01658111      -0.17848247       0.05956528      -0.01416025
H        2.41707826      -0.90844445       1.19262658       0.04837921       0.02382959      -0.02549460      -0.05716830       0.23607575      -0.33734581
H        0.78493459      -1.10077021       1.50541774      -0.04512150      -0.00811754       0.03171956       0.12285851      -0.21577461       0.18593075
N        0.59416318       2.24106003       1.03771683      -0.00895328      -0.03526256      -0.02868940       0.01463238       0.01310119      -0.00776672
H        1.17113374       1.95832927       1.82389996      -0.00328764       0.02466073      -0.00775531       0.02866428       0.00274941      -0.02910115
H       -0.27868593       1.74086891       1.16428849       0.00116258       0.02447783       0.03965316      -0.04413680       0.14955315       0.10801457
C        0.47724405       2.04939841      -1.32306652       0.03708666      -0.05243193       0.06501157       0.04945163       0.07535729      -0.03021112
N       -0.08720774       2.49345613      -2.25097870      -0.00802953       0.05283402      -0.04741190      -0.01583860       0.02752651      -0.01390259
16
Properties=species:S:1:pos:R:3:mp2_forces:R:3:forces:R:3 R1=NH2 R2=NH2 R3=NH2 R4=CN lg=F nu=F rxn-id=2778 mp2_energy=-14590.201106302156 energy=-14588.546711499415 free_energy=-14590.201106302156 pbc="F F F"
C        1.28225952       0.06955071      -0.05491279      -0.00252055       0.06558836      -0.00633522      -0.23041797      -0.01176725       0.03328032
C        1.21197502       1.60894173      -0.12910424      -0.05464479      -0.02857257      -0.01849105      -0.00458600      -0.00333500      -0.00240255
H        2.22685248       1.98869877      -0.22268585      -0.07805669      -0.01427855       0.01165751       0.00534857      -0.03126200      -0.00353568
F       -0.47172114      -0.03211702       0.17696151       0.04656442      -0.02305570      -0.01383473       0.09693650       0.00768404      -0.01815207
F        3.12111024       0.12089390      -0.32168549       0.01462564      -0.04968397       0.01272527       0.14157943      -0.01102465      -0.01156613
N        1.19059257      -0.70880692      -1.26081055       0.02882885       0.00204801      -0.00394095      -0.01431825       0.00263580       0.00241428
H        0.37586247      -1.29651746      -1.17362813      -0.05052076      -0.02189386      -0.02572204       0.00739964      -0.03061298      -0.03348542
H        2.04986916      -1.22563639      -1.36255689       0.02843413       0.03193446       0.00032700       0.01337098       0.03770442       0.03349419
N        1.53625591      -0.45641042       1.26599512       0.04605326       0.00792369       0.01658111      -0.02316087      -0.00008273       0.00131110
H        2.42305120      -0.93457073       1.23003137       0.04837921       0.02382959      -0.02549460      -0.00454292       0.02871556      -0.03698844
H        0.77092295      -1.07695691       1.48487896      -0.04512150      -0.00811754       0.03171956       0.00736116      -0.02385255       0.02635768
N        0.59285872       2.23966227       1.03856553      -0.00895328      -0.03526256      -0.02868940       0.00470130       0.00376329      -0.00045463
H        1.16854935       1.95834576       1.82697723      -0.00328764       0.02466073      -0.00775531       0.00836809       0.00395108      -0.00346472
H       -0.27344680       1.72446993       1.15277168       0.00116258       0.02447783       0.03965316      -0.00124113       0.01762676       0.01486118
C        0.47138865       2.04100697      -1.31958525       0.03708666      -0.05243193       0.06501157       0.00181364       0.00885991      -0.00218613
N       -0.08620759       2.49023786      -2.24917099      -0.00802953       0.05283402      -0.04741190      -0.00861218       0.00099631       0.00051702
16
Properties=species:S:1:pos:R:3:mp2_forces:R:3:forces:R:3 R1=NH2 R2=NH2 R3=NH2 R4=CN lg=F nu=F rxn-id=2778 mp2_energy=-14590.201106302156 energy=-14588.957941018192 free_energy=-14590.201106302156 pbc="F F F"