16
Properties=species:S:1:pos:R:3:mp2_forces:R:3:forces:R:3 R1=NH2 R2=H R3=NH2 R4=CH3 lg=F nu=Br rxn-id=2493 mp2_energy=-78948.45090168886 energy=-78948.45090168886 free_energy=-78948.45090168886 pbc="F F F"
C        0.62278069      -0.01770904      -0.05694954      -0.01909930      -0.02620551      -0.01025897      -0.01909930      -0.02620551      -0.01025897
C        0.97510836       1.46169746       0.03795198       0.00518958      -0.04666689       0.00425892       0.00518958      -0.04666689       0.00425892
H        2.04571308       1.52089059      -0.19370289       0.02637646       0.00041753      -0.00086752       0.02637646       0.00041753      -0.00086752
F       -0.72280396      -0.19378901      -0.41386869      -0.01769807       0.05568530      -0.00716026      -0.01769807       0.05568530      -0.00716026
Br       3.66103566      -0.50178208       1.62879987       0.00292686       0.06761433       0.01050372       0.00292686       0.06761433       0.01050372
H        0.72433350      -0.48237296       0.92618896       0.00194886      -0.04212646       0.03516467       0.00194886      -0.04212646       0.03516467
N        1.41636436      -0.64568108      -1.08434426      -0.01169688      -0.02579313       0.00079839      -0.01169688      -0.02579313       0.00079839
H        1.11707729      -1.61443130      -1.13610797       0.01757516      -0.01925158      -0.02032865       0.01757516      -0.01925158      -0.02032865
H        2.36239966      -0.66789125      -0.70177715      -0.00741835      -0.00164751      -0.01230134      -0.00741835      -0.00164751      -0.01230134
N        0.69462723       1.92696553       1.40014070      -0.00164065       0.00746790       0.00294078      -0.00164065       0.00746790       0.00294078
H        0.91585312       2.91675067       1.44562315       0.00124175       0.01489882      -0.00065568       0.00124175       0.01489882      -0.00065568
H        1.37075388       1.46057729       2.00291533      -0.00695802      -0.02221125      -0.01312506      -0.00695802      -0.02221125      -0.01312506
C        0.19909906       2.27041459      -0.98631436       0.00440933       0.00588649       0.00169082       0.00440933       0.00588649       0.00169082
H        0.32808513       1.82969946      -1.97648320      -0.00404383       0.01135097      -0.00364898      -0.00404383       0.01135097      -0.00364898
H       -0.86185357       2.27266662      -0.73246170       0.00397713       0.00511152       0.01055517       0.00397713       0.00511152       0.01055517
H        0.55773521       3.30460101      -1.01341047       0.00491000       0.01546946       0.00243400       0.00491000       0.01546946       0.00243400
16
Properties=species:S:1:pos:R:3:mp2_forces:R:3:forces:R:3 R1=NH2 R2=H R3=NH2 R4=CH3 lg=F nu=Br rxn-id=2493 mp2_energy=-78948.45090168886 energy=-78948.45020062076 free_energy=-78948.45090168886 pbc="F F F"
C        0.60301887      -0.04544076      -0.06058264      -0.01909930      -0.02620551      -0.01025897      -0.00526812      -0.00020168      -0.00060460
C        0.98456666       1.42385051       0.05700163       0.00518958      -0.04666689       0.00425892      -0.00229314      -0.00098389       0.00089109
H        2.06171559       1.45565377      -0.13988320       0.02637646       0.00041753      -0.00086752      -0.00208508      -0.00361904       0.00181397
F       -0.76263834      -0.18234464      -0.34650671      -0.01769807       0.05568530      -0.00716026      -0.00312774       0.00224066      -0.01463934
Br       3.67611499      -0.16362507       1.72478371       0.00292686       0.06761433       0.01050372       0.01159083       0.00040486      -0.02851626
H        0.75374738      -0.54442463       0.90039704       0.00194886      -0.04212646       0.03516467      -0.01731936       0.00050477       0.00206155
N        1.33056526      -0.66185740      -1.14613209      -0.01169688      -0.02579313       0.00079839       0.00534211      -0.00259330       0.00789044
H        1.02949044      -1.63250380      -1.19412901       0.01757516      -0.01925158      -0.02032865       0.00976050      -0.00411103       0.00912252
H        2.30095297      -0.67924315      -0.84648759      -0.00741835      -0.00164751      -0.01230134       0.00341668       0.00281910       0.01608173
N        0.68510585       1.89309817       1.41268563      -0.00164065       0.00746790       0.00294078      -0.00187473      -0.00147083       0.00109616
H        0.90515573       2.88666956       1.45287270       0.00124175       0.01489882      -0.00065568      -0.00319969      -0.00112483       0.00104164
H        1.36878152       1.43863051       2.01621285      -0.00695802      -0.02221125      -0.01312506      -0.00060239      -0.00041089       0.00027530
C        0.25462639       2.25793896      -0.98007387       0.00440933       0.00588649       0.00169082       0.00078056       0.00154427       0.00100902
H        0.38919322       1.82844036      -1.97598137      -0.00404383       0.01135097      -0.00364898      -0.00056794       0.00136356       0.00075725
H       -0.81075015       2.28114329      -0.74331898       0.00397713       0.00511152       0.01055517       0.00081531       0.00548501       0.00054114
H        0.63666234       3.28462084      -0.98465835       0.00491000       0.01546946       0.00243400       0.00463220       0.00015326       0.00117838
16
Properties=species:S:1:pos:R:3:mp2_forces:R:3:forces:R:3 R1=NH2 R2=H R3=NH2 R4=CH3 lg=F nu=Br rxn-id=2493 mp2_energy=-78948.45090168886 energy=-78948.43953516493 free_energy=-78948.45090168886 pbc="F F F"
C        0.62135980      -0.04911007      -0.06121448      -0.01909930      -0.02620551      -0.01025897      -0.00480420      -0.00024586       0.00015172
C        0.99602610       1.42148704       0.05296676       0.00518958      -0.04666689       0.00425892      -0.00201270      -0.00115953       0.00152007
H        2.07303055       1.46072259      -0.14466471       0.02637646       0.00041753      -0.00086752      -0.00158888      -0.00399014       0.00387326
F       -0.75610047      -0.18942799      -0.27546070      -0.01769807       0.05568530      -0.00716026      -0.00369133       0.00222761      -0.01178529
Br       3.62823486      -0.11514743       1.88189138       0.00292686       0.06761433       0.01050372       0.00655302       0.00271344      -0.03117861
H        0.82892833      -0.55531535       0.88495077       0.00194886      -0.04212646       0.03516467      -0.01466076      -0.00015590       0.00274377
N        1.29147355      -0.65413660      -1.19126431      -0.01169688      -0.02579313       0.00079839       0.00468103      -0.00218697       0.00653735
H        0.98393700      -1.62238897      -1.23232640       0.01757516      -0.01925158      -0.02032865       0.00990541      -0.00404716       0.00890157
H        2.27588637      -0.67990675      -0.94782986      -0.00741835      -0.00164751      -0.01230134       0.00349849       0.00353996       0.01340760
N        0.69494588       1.89148739       1.40838047      -0.00164065       0.00746790       0.00294078      -0.00260920      -0.00127193       0.00128862
H        0.92184680       2.88313816       1.44936349       0.00124175       0.01489882      -0.00065568      -0.00233877      -0.00126262       0.00119843
H        1.37416677       1.43197490       2.01400438      -0.00695802      -0.02221125      -0.01312506      -0.00206540      -0.00083891       0.00063725
C        0.25753355       2.25046739      -0.98337864       0.00440933       0.00588649       0.00169082       0.00164071       0.00113983       0.00086475
H        0.38974747       1.82070397      -1.97874502      -0.00404383       0.01135097      -0.00364898       0.00053861       0.00069183       0.00078420
H       -0.80682423       2.26629841      -0.74024480       0.00397713       0.00511152       0.01055517       0.00157566       0.00503948       0.00013135
H        0.63211637       3.27975980      -0.99022856       0.00491000       0.01546946       0.00243400       0.00537832      -0.00019313       0.00092397
16
Properties=species:S:1:pos:R:3:mp2_forces:R:3:forces:R:3 R1=NH2 R2=H R3=NH2 R4=CH3 lg=F nu=Br rxn-id=2493 mp2_energy=-78948.45090168886 energy=-78948.43123848643 free_energy=-78948.45090168886 pbc="F F F"
C        0.64174273      -0.05512890      -0.06618880      -0.01909930      -0.02620551      -0.01025897      -0.00196801      -0.00149319      -0.00046919
C        1.00957948       1.41773443       0.04469068       0.00518958      -0.04666689       0.00425892       0.00020222      -0.00218420       0.00064168
H        2.08571774       1.46695967      -0.15938856       0.02637646       0.00041753      -0.00086752       0.00069648      -0.00395916       0.00291573
F       -0.74549542      -0.19924201      -0.19313263      -0.01769807       0.05568530      -0.00716026      -0.00241966       0.00067615       0.00148881
Br       3.59851150      -0.06106158       2.10682447       0.00292686       0.06761433       0.01050372       0.00150688       0.01345233       0.00192944
H        0.91441896      -0.56808641       0.85934311       0.00194886      -0.04212646       0.03516467      -0.00165395      -0.00279408      -0.00128004
N        1.23684238      -0.64729918      -1.24450019      -0.01169688      -0.02579313       0.00079839      -0.00467857      -0.00125109      -0.00175411
H        0.92650546      -1.61352420      -1.27751759       0.01757516      -0.01925158      -0.02032865       0.00176232      -0.00329854       0.00216220
H        2.23647402      -0.67368043      -1.07904793      -0.00741835      -0.00164751      -0.01230134      -0.00375195       0.00618226      -0.00864273
N        0.70938739       1.88708213       1.40186435      -0.00164065       0.00746790       0.00294078      -0.00086609      -0.00222040       0.00046090
H        0.93426391       2.87857747       1.44374046       0.00124175       0.01489882      -0.00065568      -0.00079996      -0.00223899       0.00042724
H        1.38706306       1.42643323       2.01088988      -0.00695802      -0.02221125      -0.01312506      -0.00060851      -0.00172930       0.00053876
C        0.25965182       2.24260079      -0.98725724       0.00440933       0.00588649       0.00169082       0.00280383      -0.00021967       0.00034643
H        0.38821009       1.81426350      -1.98286358      -0.00404383       0.01135097      -0.00364898       0.00136163      -0.00033084       0.00021002
H       -0.80326023       2.25045830      -0.73594252       0.00397713       0.00511152       0.01055517       0.00283909       0.00260750       0.00049802
H        0.62669580       3.27451970      -0.99531414       0.00491000       0.01546946       0.00243400       0.00557425      -0.00119878       0.00052684
16
Properties=species:S:1:pos:R:3:mp2_forces:R:3:forces:R:3 R1=NH2 R2=H R3=NH2 R4=CH3 lg=F nu=Br rxn-id=2493 mp2_energy=-78948.45090168886 energy=-78948.42960818628 free_energy=-78948.45090168886 pbc="F F F"
C        0.66990278      -0.05314275      -0.06799258      -0.01909930      -0.02620551      -0.01025897      -0.00268504      -0.00117531       0.00019292
C        1.02047690       1.42432583       0.03375037       0.00518958      -0.04666689       0.00425892      -0.00029639      -0.00187381       0.00071933
H        2.09297376       1.48759690      -0.18826950       0.02637646       0.00041753      -0.00086752       0.00036498      -0.00363190       0.00354546
F       -0.71887671      -0.21401530      -0.14020670      -0.01769807       0.05568530      -0.00716026      -0.00307723       0.00104464       0.00211499
Br       3.50948490      -0.07358987       2.24895966       0.00292686       0.06761433       0.01050372       0.00399071       0.00746595      -0.00282963
H        0.98968268      -0.56334646       0.84349972       0.00194886      -0.04212646       0.03516467      -0.00267755      -0.00216614      -0.00036660
N        1.22636365      -0.63424739      -1.27064278      -0.01169688      -0.02579313       0.00079839      -0.00550780      -0.00175370      -0.00057543
H        0.89388909      -1.59221860      -1.31579803       0.01757516      -0.01925158      -0.02032865       0.00534427      -0.00563815       0.00664975
H        2.22906607      -0.68314401      -1.13241089      -0.00741835      -0.00164751      -0.01230134      -0.00428742       0.01047906      -0.00940054
N        0.72999207       1.89670371       1.39263759      -0.00164065       0.00746790       0.00294078      -0.00182756      -0.00183026       0.00046657
H        0.98097347       2.88116088       1.43742478       0.00124175       0.01489882      -0.00065568      -0.00223084      -0.00168203       0.00047485
H        1.39206235       1.41796923       2.00534001      -0.00695802      -0.02221125      -0.01312506      -0.00163720      -0.00117808       0.00078450
C        0.24439463       2.23630621      -0.98944353       0.00440933       0.00588649       0.00169082       0.00312007       0.00008363      -0.00028641
H        0.35554624       1.80141270      -1.98377426      -0.00404383       0.01135097      -0.00364898       0.00410487       0.00089082      -0.00055527
H       -0.81272678       2.23784135      -0.71438161       0.00397713       0.00511152       0.01055517       0.00255376       0.00142235      -0.00236925
H        0.60310361       3.27099405      -1.01249250       0.00491000       0.01546946       0.00243400       0.00474838      -0.00045706       0.00143477
16
Properties=species:S:1:pos:R:3:mp2_forces:R:3:forces:R:3 R1=NH2 R2=H R3=NH2 R4=CH3 lg=F nu=Br rxn-id=2493 mp2_energy=-78948.45090168886 energy=-78948.42946091446 free_energy=-78948.45090168886 pbc="F F F"
C        0.67127672      -0.05293024      -0.06835835      -0.01909930      -0.02620551      -0.01025897      -0.00264525      -0.00118322       0.00014543
C        1.02091425       1.42480875       0.03298125       0.00518958      -0.04666689       0.00425892      -0.00029242      -0.00185761       0.00061333
H        2.09309038       1.48896826      -0.19045229       0.02637646       0.00041753      -0.00086752       0.00032296      -0.00349769       0.00331069
F       -0.71747047      -0.21462827      -0.13897485      -0.01769807       0.05568530      -0.00716026      -0.00304456       0.00102444       0.00250475
Br       3.50587122      -0.07529380       2.25681754       0.00292686       0.06761433       0.01050372       0.00457274       0.00709597      -0.00126125
H        0.99258838      -0.56285001       0.84273821       0.00194886      -0.04212646       0.03516467      -0.00238131      -0.00214675      -0.00049604
N        1.22668416      -0.63369448      -1.27170023      -0.01169688      -0.02579313       0.00079839      -0.00594566      -0.00180580      -0.00082329
H        0.89251413      -1.59099551      -1.31786346       0.01757516      -0.01925158      -0.02032865       0.00525792      -0.00581911       0.00677996
H        2.22933944      -0.68445079      -1.13368815      -0.00741835      -0.00164751      -0.01230134      -0.00463886       0.01080726      -0.01032641
N        0.73134141       1.89718550       1.39210087      -0.00164065       0.00746790       0.00294078      -0.00177431      -0.00185651       0.00040957
H        0.98327318       2.88138350       1.43703171       0.00124175       0.01489882      -0.00065568      -0.00245752      -0.00161209       0.00041460
H        1.39281133       1.41763550       2.00484451      -0.00695802      -0.02221125      -0.01312506      -0.00155898      -0.00110670       0.00078346
C        0.24312825       2.23615280      -0.98941120       0.00440933       0.00588649       0.00169082       0.00312029       0.00009233      -0.00035068
H        0.35266195       1.80064897      -1.98364386      -0.00404383       0.01135097      -0.00364898       0.00431358       0.00100434      -0.00063226
H       -0.81350395       2.23782859      -0.71250092       0.00397713       0.00511152       0.01055517       0.00252578       0.00126791      -0.00259285
H        0.60178832       3.27083774      -1.01372101       0.00491000       0.01546946       0.00243400       0.00462559      -0.00040676       0.00152100
16
Properties=species:S:1:pos:R:3:mp2_forces:R:3:forces:R:3 R1=NH2 R2=H R3=NH2 R4=CH3 lg=F nu=Br rxn-id=2493 mp2_energy=-78948.45090168886 energy=-78948.43106319831 free_energy=-78948.45090168886 pbc="F F F"
C        0.65596868      -0.05489825      -0.06482957      -0.01909930      -0.02620551      -0.01025897      -0.00248168      -0.00125947      -0.00031253
C        1.01561139       1.42004511       0.04066076       0.00518958      -0.04666689       0.00425892      -0.00020724      -0.00195126       0.00071496
H        2.09070959       1.47528096      -0.16885220       0.02637646       0.00041753      -0.00086752       0.00033272      -0.00368880       0.00310108
F       -0.73295029      -0.20754791      -0.15453082      -0.01769807       0.05568530      -0.00716026      -0.00282665       0.00103898       0.00009506
Br       3.55086680      -0.06218271       2.17552007       0.00292686       0.06761433       0.01050372       0.00364725       0.00999969      -0.00178194
H        0.95911201      -0.56738599       0.85126827       0.00194886      -0.04212646       0.03516467      -0.00338827      -0.00233378      -0.00058344
N        1.22369764      -0.64028720      -1.25990444      -0.01169688      -0.02579313       0.00079839      -0.00397443      -0.00147890      -0.00071782
H        0.90864702      -1.60480303      -1.29414754       0.01757516      -0.01925158      -0.02032865       0.00385705      -0.00418305       0.00410639
H        2.22663740      -0.67056842      -1.11924009      -0.00741835      -0.00164751      -0.01230134      -0.00303306       0.00740808      -0.00688235
N        0.71710271       1.89221215       1.39764833      -0.00164065       0.00746790       0.00294078      -0.00138899      -0.00205096       0.00052348
H        0.95707232       2.87983478       1.44088263       0.00124175       0.01489882      -0.00065568      -0.00166906      -0.00197498       0.00055177
H        1.38531288       1.42202867       2.01001262      -0.00695802      -0.02221125      -0.01312506      -0.00104469      -0.00145482       0.00059443
C        0.25596329       2.23822769      -0.98979415       0.00440933       0.00588649       0.00169082       0.00263352       0.00003682       0.00018771
H        0.38347187       1.80954933      -1.98501867      -0.00404383       0.01135097      -0.00364898       0.00143669      -0.00013750       0.00010983
H       -0.80582844       2.23814378      -0.73323278       0.00397713       0.00511152       0.01055517       0.00257498       0.00299440      -0.00006645
H        0.61491383       3.27295753      -1.00024268       0.00491000       0.01546946       0.00243400       0.00553187      -0.00096446       0.00035983
16
Properties=species:S:1:pos:R:3:mp2_forces:R:3:forces:R:3 R1=NH2 R2=H R3=NH2 R4=CH3 lg=F nu=Br rxn-id=2493 mp2_energy=-78948.45090168886 energy=-78948.43034856961 free_energy=-78948.45090168886 pbc="F F F"
C        0.65885338      -0.05268425      -0.06551509      -0.01909930      -0.02620551      -0.01025897      -0.00281545      -0.00131020      -0.00037747
C        1.01546203       1.42322985       0.03815443       0.00518958      -0.04666689       0.00425892      -0.00028958      -0.00204083       0.00065967
H        2.08923470       1.48149240      -0.17743904       0.02637646       0.00041753      -0.00086752       0.00024554      -0.00367300       0.00314689
F       -0.72931497      -0.20819881      -0.16069886      -0.01769807       0.05568530      -0.00716026      -0.00345692       0.00134015       0.00036006
Br       3.54161277      -0.08203738       2.18088490       0.00292686       0.06761433       0.01050372       0.00556829       0.00981064      -0.00015049
H        0.95961410      -0.56306984       0.85242830       0.00194886      -0.04212646       0.03516467      -0.00357523      -0.00260985      -0.00060728
N        1.23286336      -0.63905191      -1.25731377      -0.01169688      -0.02579313       0.00079839      -0.00475176      -0.00173109      -0.00129689
H        0.91106984      -1.60113479      -1.29608913       0.01757516      -0.01925158      -0.02032865       0.00403334      -0.00481744       0.00494678
H        2.23424452      -0.67737172      -1.10634210      -0.00741835      -0.00164751      -0.01230134      -0.00323389       0.00820959      -0.00837579
N        0.72151926       1.89556426       1.39606734      -0.00164065       0.00746790       0.00294078      -0.00150008      -0.00227678       0.00054791
H        0.96528632       2.88227437       1.43958444       0.00124175       0.01489882      -0.00065568      -0.00255406      -0.00194123       0.00052139
H        1.38818606       1.42205814       2.00752215      -0.00695802      -0.02221125      -0.01312506      -0.00082197      -0.00135595       0.00056623
C        0.24928357       2.23888828      -0.98944642       0.00440933       0.00588649       0.00169082       0.00281886       0.00014231       0.00008802
H        0.37203572       1.80830917      -1.98448186      -0.00404383       0.01135097      -0.00364898       0.00200647       0.00012047      -0.00004308
H       -0.81100672       2.23844770      -0.72707752       0.00397713       0.00511152       0.01055517       0.00264628       0.00297511      -0.00054716
H        0.60736474       3.27389102      -1.00403800       0.00491000       0.01546946       0.00243400       0.00568015      -0.00084190       0.00056122
16
Properties=species:S:1:pos:R:3:mp2_forces:R:3:forces:R:3 R1=NH2 R2=H R3=NH2 R4=CH3 lg=F nu=Br rxn-id=2493 mp2_energy=-78948.45090168886 energy=-78948.44187649662 free_energy=-78948.45090168886 pbc="F F F"
C        0.62455665      -0.04143188      -0.05732975      -0.01909930      -0.02620551      -0.01025897      -0.00752932      -0.00076952      -0.00131876
C        0.99176285       1.43242064       0.05545776       0.00518958      -0.04666689       0.00425892      -0.00259817      -0.00206564       0.00034899
H        2.06660640       1.47403070      -0.15210936       0.02637646       0.00041753      -0.00086752      -0.00201890      -0.00502410       0.00314475
F       -0.74359130      -0.19301442      -0.32108178      -0.01769807       0.05568530      -0.00716026      -0.00620670       0.00403723      -0.01204576
Br       3.65387542      -0.16971944       1.79401394       0.00292686       0.06761433       0.01050372       0.00816146      -0.00204075      -0.02889996
H        0.80154347      -0.53865303       0.89965825       0.00194886      -0.04212646       0.03516467      -0.01867920      -0.00089217       0.00108045
N        1.33901406      -0.65079414      -1.15815812      -0.01169688      -0.02579313       0.00079839      -0.00069743      -0.00434915       0.00574802
H        0.96456930      -1.58928356      -1.26615274       0.01757516      -0.01925158      -0.02032865       0.02093578      -0.01752300       0.02402002
H        2.29592106      -0.75660523      -0.83304003      -0.00741835      -0.00164751      -0.01230134       0.00476611       0.02338721       0.00332004
N        0.69629084       1.90380923       1.41066342      -0.00164065       0.00746790       0.00294078      -0.00289762      -0.00283626       0.00069870
H        0.91312075       2.89788747       1.44787311       0.00124175       0.01489882      -0.00065568      -0.00257072      -0.00276088       0.00136149
H        1.38320921       1.45174544       2.01329521      -0.00695802      -0.02221125      -0.01312506      -0.00296287      -0.00308692       0.00023885
C        0.24484560       2.25295697      -0.98086339       0.00440933       0.00588649       0.00169082       0.00224769       0.00253948       0.00059625
H        0.39879288       1.83121834      -1.97664899      -0.00404383       0.01135097      -0.00364898      -0.00302237       0.00045145       0.00043626
H       -0.82243698       2.24633248      -0.75128844       0.00397713       0.00511152       0.01055517       0.00251696       0.01109112       0.00235279
H        0.59822847       3.28970693      -0.97808934       0.00491000       0.01546946       0.00243400       0.01055531      -0.00015808      -0.00108212
16
Properties=species:S:1:pos:R:3:mp2_forces:R:3:forces:R:3 R1=NH2 R2=H R3=NH2 R4=CH3 lg=F nu=Br rxn-id=2493 mp2_energy=-78948.45090168886 energy=-78948.4313974377 free_energy=-78948.45090168886 pbc="F F F"
C        0.64214858      -0.04059214      -0.05514022      -0.01909930      -0.02620551      -0.01025897      -0.00927367      -0.00037094      -0.00183676
C        0.99858194       1.43601668       0.05464113       0.00518958      -0.04666689       0.00425892      -0.00252534      -0.00211958       0.00057984
H        2.07218077       1.48413850      -0.15902126       0.02637646       0.00041753      -0.00086752      -0.00155772      -0.00565878       0.00438041
F       -0.72983633      -0.20223142      -0.29046602      -0.01769807       0.05568530      -0.00716026      -0.00869129       0.00622382      -0.00782285
Br       3.63357975      -0.15438504       1.87290886       0.00292686       0.06761433       0.01050372       0.00354704      -0.00174425      -0.02906771
H        0.84740523      -0.53875815       0.89519658       0.00194886      -0.04212646       0.03516467      -0.01819308      -0.00321520      -0.00007661
N        1.33747884      -0.64066535      -1.17520190      -0.01169688      -0.02579313       0.00079839      -0.00616100      -0.00207193       0.00012621
H        0.91263496      -1.54875190      -1.32503904       0.01757516      -0.01925158      -0.02032865       0.02007596      -0.03741393       0.02917533
H        2.28299442      -0.81091564      -0.84786493      -0.00741835      -0.00164751      -0.01230134       0.01599748       0.03822145      -0.00037494
N        0.70394024       1.90881940       1.40915742      -0.00164065       0.00746790       0.00294078      -0.00346919      -0.00306284       0.00086334
H        0.91858838       2.90297465       1.44460373       0.00124175       0.01489882      -0.00065568      -0.00100113      -0.00347262       0.00200857
H        1.39213084       1.45828140       2.01234796      -0.00695802      -0.02221125      -0.01312506      -0.00448637      -0.00487151       0.00019651
C        0.24057650       2.24661474      -0.98183313       0.00440933       0.00588649       0.00169082       0.00304454       0.00387440       0.00041453
H        0.40401740       1.82863460      -1.97718104      -0.00404383       0.01135097      -0.00364898      -0.00339107      -0.00021386       0.00078656
H       -0.82694670       2.22250961      -0.75429075       0.00397713       0.00511152       0.01055517       0.00271988       0.01470555       0.00294317
H        0.57683387       3.28891657      -0.97661763       0.00491000       0.01546946       0.00243400       0.01336497       0.00119022      -0.00229561
16
Properties=species:S:1:pos:R:3:mp2_forces:R:3:forces:R:3 R1=NH2 R2=H R3=NH2 R4=CH3 lg=F nu=Br rxn-id=2493 mp2_energy=-78948.45090168886 energy=-78948.35533792034 free_energy=-78948.45090168886 pbc="F F F"
C        0.75455162      -0.04370161      -0.04060813      -0.01909930      -0.02620551      -0.01025897      -0.00548081       0.00232799      -0.00196403
C        1.03663676       1.45167598       0.04721160       0.00518958      -0.04666689       0.00425892      -0.00715052       0.00241177      -0.00365212
H        2.10014310       1.53915422      -0.20771657       0.02637646       0.00041753      -0.00086752      -0.00623575      -0.00581200       0.00002918
F       -0.63199265      -0.27461669      -0.16064847      -0.01769807       0.05568530      -0.00716026      -0.00011182       0.03117472       0.13740826
Br       3.56839219      -0.04334322       2.32650285       0.00292686       0.06761433       0.01050372      -0.02974095       0.01366739       0.02161650
H        1.09544881      -0.52119608       0.87662239       0.00194886      -0.04212646       0.03516467       0.00592639      -0.01112432      -0.01679865
N        1.37506876      -0.61093289      -1.21669762      -0.01169688      -0.02579313       0.00079839      -0.04765002      -0.00495698      -0.04456711
H        0.63666385      -1.12351123      -1.69522363       0.01757516      -0.01925158      -0.02032865       0.12216122      -0.07020829      -0.00399130
H        2.08824266      -1.24969058      -0.91308545      -0.00741835      -0.00164751      -0.01230134      -0.00507467      -0.01985523      -0.06927414
N        0.75207992       1.93301634       1.39901248      -0.00164065       0.00746790       0.00294078      -0.01195560      -0.00236542      -0.00290860
H        0.93349853       2.93205568       1.42077125       0.00124175       0.01489882      -0.00065568       0.00396770      -0.00421839       0.00456391
H        1.45653558       1.50643656       2.00782708      -0.00695802      -0.02221125      -0.01312506      -0.02023411      -0.01540522      -0.00158758
C        0.21340105       2.19734456      -0.98471542       0.00440933       0.00588649       0.00169082      -0.00103777       0.01648040      -0.00416625
H        0.43419561       1.81907360      -1.98361142      -0.00404383       0.01135097      -0.00364898      -0.01201030       0.01037541      -0.00404418
H       -0.84850385       2.06119729      -0.77202964       0.00397713       0.00511152       0.01055517      -0.00525759       0.04377473      -0.00020712
H        0.44194677       3.26764456      -0.95741154       0.00491000       0.01546946       0.00243400       0.01988461       0.01373344      -0.01045677
16
Properties=species:S:1:pos:R:3:mp2_forces:R:3:forces:R:3 R1=NH2 R2=H R3=NH2 R4=CH3 lg=F nu=Br rxn-id=2493 mp2_energy=-78948.45090168886 energy=-78947.7614844207 free_energy=-78948.45090168886 pbc="F F F"