18
Properties=species:S:1:pos:R:3:mp2_forces:R:3:forces:R:3 R1=CH3 R2=CH3 R3=NH2 R4=CN lg=F nu=Br rxn-id=2289 mp2_energy=-81018.03664463334 energy=-81018.03664086429 free_energy=-81018.03664086429 pbc="F F F"
C        0.78141534      -0.08812566       0.00961583      -0.00834867       0.01980052      -0.04056865      -0.00826528       0.01980539      -0.04056223
C        1.31460955       1.35544707       0.08799861      -0.02294647       0.04676374      -0.00691095      -0.02289631       0.04673876      -0.00691322
H        2.39260371       1.30926376      -0.13094234      -0.04309739      -0.03010075       0.00542236      -0.04311358      -0.03009831       0.00543435
F       -0.60859740      -0.02360281      -0.22489028      -0.03848241      -0.03853597       0.01199253      -0.03852944      -0.03854334       0.01198628
Br       4.54696152       0.50126908       1.09911938      -0.04960632       0.03044374       0.05120512      -0.04960545       0.03044249       0.05120595
C        1.41221965      -0.80309397      -1.16635059       0.01686022      -0.01317761      -0.02520943       0.01686131      -0.01317440      -0.02519745
H        0.88618163      -1.74162077      -1.34839218      -0.03313859      -0.06072908       0.02548747      -0.03314076      -0.06073227       0.02548755
H        1.35848856      -0.19913029      -2.07438350      -0.05389461       0.04636847      -0.03725695      -0.05389871       0.04636419      -0.03725654
H        2.45920034      -1.00921468      -0.94339791       0.07674435       0.02949077       0.01625681       0.07673318       0.02949152       0.01624844
C        0.97778046      -0.83496343       1.30877501      -0.01229107       0.02280000      -0.02935190      -0.01228949       0.02281380      -0.02936352
H        2.02908270      -0.80541951       1.60496290      -0.00251589      -0.00207762      -0.03379097      -0.00252065      -0.00208030      -0.03379158
H        0.36117963      -0.36746091       2.07575637       0.02510346       0.00627779       0.03931720       0.02509876       0.00627621       0.03932837
H        0.66157624      -1.87319906       1.17518513       0.00387764      -0.00497388       0.01645052       0.00387362      -0.00498273       0.01645478
N        1.07836288       1.95991907       1.40925421       0.00393009      -0.02702897      -0.01060279       0.00392055      -0.02704753      -0.01062434
H        1.13736611       2.96856762       1.31052667       0.04387602      -0.04245670       0.03414724       0.04387000      -0.04244135       0.03415298
H        1.88189927       1.68235878       1.97163529       0.02787567       0.03894681      -0.04416599       0.02788411       0.03895002      -0.04415693
C        0.65041485       2.16256854      -0.94335741       0.02076838      -0.03709218       0.05343298       0.02072488      -0.03700956       0.05334322
N        0.11780733       2.83142975      -1.74801873       0.04528561       0.01528091      -0.02585459       0.04529331       0.01522745      -0.02577609
18
Properties=species:S:1:pos:R:3:mp2_forces:R:3:forces:R:3 R1=CH3 R2=CH3 R3=NH2 R4=CN lg=F nu=Br rxn-id=2289 mp2_energy=-81018.03664463334 energy=-81018.04632742824 free_energy=-81018.03664086429 pbc="F F F"
C        0.77395524      -0.10248056      -0.00037540      -0.00834867       0.01980052      -0.04056865      -0.00221061       0.00172688      -0.00069335
C        1.31179354       1.34167519       0.06999438      -0.02294647       0.04676374      -0.00691095       0.00340785      -0.00039458      -0.00015815
H        2.37799332       1.28610774      -0.18145857      -0.04309739      -0.03010075       0.00542236       0.00464934      -0.00381067       0.00595244
F       -0.62111075      -0.03493056      -0.20009229      -0.03848241      -0.03853597       0.01199253      -0.00259134       0.00565182       0.00520619
Br       4.40848125       0.71935225       1.41986765      -0.04960632       0.03044374       0.05120512      -0.00255775      -0.00942892       0.01827189
C        1.38296494      -0.81383049      -1.19246466       0.01686022      -0.01317761      -0.02520943      -0.01023840      -0.00040821      -0.00257252
H        0.84085012      -1.74399035      -1.37563421      -0.03313859      -0.06072908       0.02548747       0.01335549      -0.02164804       0.02677633
H        1.32203321      -0.19508929      -2.09213584      -0.05389461       0.04636847      -0.03725695      -0.05210308      -0.01654744      -0.01195354
H        2.42967831      -1.03770311      -0.98568754       0.07674435       0.02949077       0.01625681       0.00208557       0.03398061      -0.02188513
C        0.99792414      -0.85554401       1.29089025      -0.01229107       0.02280000      -0.02935190       0.00284288       0.00028553      -0.00247731
H        2.06681677      -0.92118366       1.50495593      -0.00251589      -0.00207762      -0.03379097       0.00317935       0.02614748       0.00761441
H        0.50322510      -0.32543492       2.10357839       0.02510346       0.00627779       0.03931720      -0.01903797      -0.01501934      -0.00504229
H        0.56978384      -1.85671721       1.19622341       0.00387764      -0.00497388       0.01645052       0.02927569      -0.01086478      -0.01166406
N        1.14173798       1.94029789       1.40034031       0.00393009      -0.02702897      -0.01060279      -0.00107143       0.00092038      -0.00105704
H        1.19394596       2.94882733       1.30426876       0.04387602      -0.04245670       0.03414724       0.00214085       0.00058762      -0.00116224
H        1.99534384       1.67520623       1.89370108       0.02787567       0.03894681      -0.04416599      -0.00427481      -0.00112109       0.00318029
C        0.63414387       2.15656077      -0.94393937       0.02076838      -0.03709218       0.05343298       0.01246122       0.00295223      -0.00319126
N        0.10899169       2.84386935      -1.73893582       0.04528561       0.01528091      -0.02585459       0.02068715       0.00699051      -0.00514468
18
Properties=species:S:1:pos:R:3:mp2_forces:R:3:forces:R:3 R1=CH3 R2=CH3 R3=NH2 R4=CN lg=F nu=Br rxn-id=2289 mp2_energy=-81018.03664463334 energy=-81018.03030146088 free_energy=-81018.03664086429 pbc="F F F"
C        0.77789658      -0.10485661       0.00221479      -0.00834867       0.01980052      -0.04056865      -0.00371672       0.00267327      -0.00149135
C        1.31036472       1.34050364       0.07159619      -0.02294647       0.04676374      -0.00691095       0.00429981      -0.00016297      -0.00070782
H        2.37677544       1.28776238      -0.17945615      -0.04309739      -0.03010075       0.00542236       0.00533654      -0.00513295       0.00492457
F       -0.61820844      -0.03803307      -0.19191037      -0.03848241      -0.03853597       0.01199253      -0.00387565       0.00740763       0.00390661
Br       4.40270622       0.76244802       1.42849240      -0.04960632       0.03044374       0.05120512      -0.00001249      -0.02020807       0.02159332
C        1.38402355      -0.81286700      -1.19472856       0.01686022      -0.01317761      -0.02520943      -0.01226120      -0.00113091      -0.00200612
H        0.80058695      -1.70840659      -1.41698728      -0.03313859      -0.06072908       0.02548747       0.01741613      -0.03212596       0.03752357
H        1.37878970      -0.16943650      -2.07898018      -0.05389461       0.04636847      -0.03725695      -0.06637819      -0.02140741      -0.01740548
H        2.41280327      -1.09411540      -0.97063762       0.07674435       0.02949077       0.01625681       0.00622934       0.04490593      -0.02314427
C        1.00585320      -0.86048593       1.29132567      -0.01229107       0.02280000      -0.02935190       0.00135198       0.00131512      -0.00348460
H        2.07585194      -0.96898456       1.47904764      -0.00251589      -0.00207762      -0.03379097       0.00331873       0.04386473       0.01478150
H        0.55486282      -0.30868429       2.11501550       0.02510346       0.00627779       0.03931720      -0.03634213      -0.02149911      -0.00832261
H        0.53343446      -1.84301424       1.21189667       0.00387764      -0.00497388       0.01645052       0.04389702      -0.01841301      -0.01917997
N        1.13511584       1.94079727       1.40023704       0.00393009      -0.02702897      -0.01060279       0.00214168       0.00108860      -0.00146472
H        1.18924068       2.94933760       1.30221261       0.04387602      -0.04245670       0.03414724       0.00153808       0.00089579      -0.00139941
H        1.98758405       1.67746337       1.89640091       0.02787567       0.03894681      -0.04416599       0.00063265       0.00090323       0.00095458
C        0.62961661       2.14834206      -0.94628787       0.02076838      -0.03709218       0.05343298       0.01403610       0.00536820      -0.00242167
N        0.10125479       2.82722241      -1.74635492       0.04528561       0.01528091      -0.02585459       0.02238832       0.01165788      -0.00265613
18
Properties=species:S:1:pos:R:3:mp2_forces:R:3:forces:R:3 R1=CH3 R2=CH3 R3=NH2 R4=CN lg=F nu=Br rxn-id=2289 mp2_energy=-81018.03664463334 energy=-81018.01362190342 free_energy=-81018.03664086429 pbc="F F F"
C        0.78126167      -0.10611023       0.00492036      -0.00834867       0.01980052      -0.04056865      -0.00493868       0.00269500      -0.00207228
C        1.30976316       1.33998868       0.07339554      -0.02294647       0.04676374      -0.00691095       0.00461737      -0.00044691      -0.00137164
H        2.37684975       1.28925199      -0.17508171      -0.04309739      -0.03010075       0.00542236       0.00532160      -0.00669762       0.00361253
F       -0.61600337      -0.03896519      -0.18192167      -0.03848241      -0.03853597       0.01199253      -0.00474130       0.00747878       0.00276585
Br       4.39711047       0.79795928       1.43888015      -0.04960632       0.03044374       0.05120512       0.00188818      -0.02693221       0.02533337
C        1.38258541      -0.81150466      -1.19729704       0.01686022      -0.01317761      -0.02520943      -0.01373031      -0.00196482      -0.00194275
H        0.76589696      -1.67607284      -1.45034993      -0.03313859      -0.06072908       0.02548747       0.02210174      -0.03666204       0.04396543
H        1.42232105      -0.15015076      -2.06749979      -0.05389461       0.04636847      -0.03725695      -0.07546416      -0.02687692      -0.01960365
H        2.39441659      -1.14079571      -0.96222829       0.07674435       0.02949077       0.01625681       0.00605882       0.05157763      -0.02653430
C        1.01472782      -0.86492787       1.29124363      -0.01229107       0.02280000      -0.02935190       0.00012565       0.00227972      -0.00367568
H        2.08434359      -1.00655384       1.45666028      -0.00251589      -0.00207762      -0.03379097       0.00126108       0.05728531       0.02089761
H        0.59912820      -0.29916339       2.12424490       0.02510346       0.00627779       0.03931720      -0.04861658      -0.02748127      -0.01152815
H        0.50919391      -1.83206820       1.22348677       0.00387764      -0.00497388       0.01645052       0.05589135      -0.02265786      -0.02258326
N        1.12734349       1.94269317       1.39994347       0.00393009      -0.02702897      -0.01060279       0.00514054       0.00093248      -0.00206210
H        1.18647951       2.95108203       1.29981291       0.04387602      -0.04245670       0.03414724       0.00049862       0.00084711      -0.00178643
H        1.97644241       1.67904572       1.90151101       0.02787567       0.03894681      -0.04416599       0.00556385       0.00313463      -0.00201307
C        0.62825917       2.14071765      -0.94998187       0.02076838      -0.03709218       0.05343298       0.01479685       0.00715512      -0.00157257
N        0.09843256       2.81056675      -1.75664229       0.04528561       0.01528091      -0.02585459       0.02422540       0.01633387       0.00017109
18
Properties=species:S:1:pos:R:3:mp2_forces:R:3:forces:R:3 R1=CH3 R2=CH3 R3=NH2 R4=CN lg=F nu=Br rxn-id=2289 mp2_energy=-81018.03664463334 energy=-81018.04876312945 free_energy=-81018.03664086429 pbc="F F F"
C        0.77267703      -0.10023188      -0.00438845      -0.00834867       0.01980052      -0.04056865      -0.00241092       0.00010034      -0.00032756
C        1.30955742       1.34659568       0.06614386      -0.02294647       0.04676374      -0.00691095       0.00245622      -0.00232786       0.00084692
H        2.37217813       1.29345159      -0.20083606      -0.04309739      -0.03010075       0.00542236       0.00422416      -0.00591993       0.00894438
F       -0.61921124      -0.03863854      -0.22782505      -0.03848241      -0.03853597       0.01199253      -0.00339226       0.00473582       0.00758967
Br       4.42222891       0.63800936       1.37638426      -0.04960632       0.03044374       0.05120512      -0.00369136       0.01294930       0.01720186
C        1.40236397      -0.81628224      -1.18208891       0.01686022      -0.01317761      -0.02520943      -0.01036897       0.00023698      -0.00435200
H        0.89591580      -1.77087786      -1.34188683      -0.03313859      -0.06072908       0.02548747       0.00592629      -0.01281247       0.01572042
H        1.31384266      -0.21938169      -2.09393291      -0.05389461       0.04636847      -0.03725695      -0.04104107      -0.01011011      -0.00995877
H        2.45760537      -0.99570844      -0.97359309       0.07674435       0.02949077       0.01625681      -0.00213119       0.02386958      -0.02097172
C        0.97699644      -0.84756063       1.29353855      -0.01229107       0.02280000      -0.02935190       0.00417131      -0.00065731      -0.00171609
H        2.04003367      -0.87715713       1.54312758      -0.00251589      -0.00207762      -0.03379097       0.00461030       0.01090911      -0.00112824
H        0.43544883      -0.33683170       2.08818097       0.02510346       0.00627779       0.03931720      -0.00245190      -0.00742445      -0.00111932
H        0.58923285      -1.86353539       1.18266228       0.00387764      -0.00497388       0.01645052       0.01575622      -0.00499257      -0.00337693
N        1.16155947       1.94099909       1.40046461       0.00393009      -0.02702897      -0.01060279      -0.00476846      -0.00149144       0.00047031
H        1.18963011       2.95080357       1.30752131       0.04387602      -0.04245670       0.03414724       0.00551038      -0.00199002       0.00004164
H        2.02857121       1.68620702       1.87567263       0.02787567       0.03894681      -0.04416599      -0.00992454      -0.00743296       0.00722586
C        0.61534195       2.16874752      -0.93032748       0.02076838      -0.03709218       0.05343298       0.01367169       0.00014200      -0.00483085
N        0.07457981       2.86638423      -1.70572078       0.04528561       0.01528091      -0.02585459       0.02385410       0.00221599      -0.01025959
18
Properties=species:S:1:pos:R:3:mp2_forces:R:3:forces:R:3 R1=CH3 R2=CH3 R3=NH2 R4=CN lg=F nu=Br rxn-id=2289 mp2_energy=-81018.03664463334 energy=-81018.03481453091 free_energy=-81018.03664086429 pbc="F F F"
C        0.77631502      -0.10185972      -0.00474041      -0.00834867       0.01980052      -0.04056865      -0.00350876       0.00053020      -0.00086012
C        1.30517010       1.34870815       0.06427086      -0.02294647       0.04676374      -0.00691095       0.00373765      -0.00280270       0.00115878
H        2.36427091       1.30092215      -0.21748593      -0.04309739      -0.03010075       0.00542236       0.00594972      -0.00768037       0.01011224
F       -0.61407973      -0.04655086      -0.24182674      -0.03848241      -0.03853597       0.01199253      -0.00438240       0.00635877       0.00726931
Br       4.42835852       0.63161788       1.35163360      -0.04960632       0.03044374       0.05120512      -0.00514201       0.01400023       0.01791768
C        1.42114714      -0.81803077      -1.17507912       0.01686022      -0.01317761      -0.02520943      -0.01321582       0.00006277      -0.00508527
H        0.87976896      -1.74491991      -1.37601648      -0.03313859      -0.06072908       0.02548747       0.01043196      -0.02134939       0.02483111
H        1.39624003      -0.19874601      -2.07581258      -0.05389461       0.04636847      -0.03725695      -0.05731456      -0.01491779      -0.01539741
H        2.45931045      -1.04678399      -0.93224350       0.07674435       0.02949077       0.01625681       0.00040198       0.03568301      -0.02660215
C        0.96904733      -0.84715067       1.29589066      -0.01229107       0.02280000      -0.02935190       0.00321244      -0.00005294      -0.00211407
H        2.03262712      -0.90702161       1.53738763      -0.00251589      -0.00207762      -0.03379097       0.00332089       0.02300672       0.00443423
H        0.44994441      -0.31743638       2.09290743       0.02510346       0.00627779       0.03931720      -0.01402367      -0.01220155      -0.00483410
H        0.54974950      -1.85139185       1.19181373       0.00387764      -0.00497388       0.01645052       0.02650905      -0.00950806      -0.00615267
N        1.17184481       1.94117027       1.39975568       0.00393009      -0.02702897      -0.01060279      -0.00370939      -0.00297060       0.00161380
H        1.17713324       2.95167187       1.30770211       0.04387602      -0.04245670       0.03414724       0.00951622      -0.00333271       0.00185055
H        2.05100545       1.70024248       1.86007725       0.02787567       0.03894681      -0.04416599      -0.00948594      -0.01063150       0.00849690
C        0.59085597       2.16784814      -0.92082882       0.02076838      -0.03709218       0.05343298       0.01740867       0.00116377      -0.00503939
N        0.02984313       2.86270341      -1.68430891       0.04528561       0.01528091      -0.02585459       0.03029398       0.00464213      -0.01159942
18
Properties=species:S:1:pos:R:3:mp2_forces:R:3:forces:R:3 R1=CH3 R2=CH3 R3=NH2 R4=CN lg=F nu=Br rxn-id=2289 mp2_energy=-81018.03664463334 energy=-81018.02162807321 free_energy=-81018.03664086429 pbc="F F F"
C        0.78074912      -0.10222468      -0.00437399      -0.00834867       0.01980052      -0.04056865      -0.00595650       0.00073193      -0.00140702
C        1.30138455       1.35214826       0.06404157      -0.02294647       0.04676374      -0.00691095       0.00409334      -0.00378667       0.00073356
H        2.35807784       1.31059806      -0.22763209      -0.04309739      -0.03010075       0.00542236       0.00649843      -0.01084651       0.00980688
F       -0.60830024      -0.05446060      -0.25271860      -0.03848241      -0.03853597       0.01199253      -0.00691463       0.00829770       0.00703843
Br       4.43418503       0.60341815       1.32176351      -0.04960632       0.03044374       0.05120512      -0.00191320       0.02341236       0.02255281
C        1.43841344      -0.81544371      -1.17048272       0.01686022      -0.01317761      -0.02520943      -0.01642187      -0.00129764      -0.00453956
H        0.87866813      -1.72348457      -1.40204272      -0.03313859      -0.06072908       0.02548747       0.00885439      -0.03031331       0.03342117
H        1.45320876      -0.18064723      -2.06072799      -0.05389461       0.04636847      -0.03725695      -0.06754571      -0.01795204      -0.02088633
H        2.46431162      -1.07360594      -0.90761784       0.07674435       0.02949077       0.01625681       0.00272528       0.04156185      -0.02508160
C        0.96317952      -0.84339083       1.30008318      -0.01229107       0.02280000      -0.02935190       0.00198819      -0.00106228      -0.00374034
H        2.02594873      -0.92481496       1.53835124      -0.00251589      -0.00207762      -0.03379097       0.00352343       0.03028359       0.00544493
H        0.45812587      -0.29779324       2.09577297       0.02510346       0.00627779       0.03931720      -0.02227090      -0.01825123      -0.00664619
H        0.52098719      -1.83815785       1.20332117       0.00387764      -0.00497388       0.01645052       0.03370095      -0.01553516      -0.01155993
N        1.17473740       1.94325759       1.40031108       0.00393009      -0.02702897      -0.01060279      -0.00171506      -0.00428844       0.00144932
H        1.17642690       2.95434313       1.30916644       0.04387602      -0.04245670       0.03414724       0.01121398      -0.00468659       0.00177926
H        2.05648560       1.70323866       1.85633227       0.02787567       0.03894681      -0.04416599      -0.00673851      -0.01191473       0.00709631
C        0.57051184       2.16407269      -0.91527097       0.02076838      -0.03709218       0.05343298       0.02030353       0.00363871      -0.00501738
N       -0.00854892       2.84793966      -1.67518006       0.04528561       0.01528091      -0.02585459       0.03657487       0.01200844      -0.01044432
18
Properties=species:S:1:pos:R:3:mp2_forces:R:3:forces:R:3 R1=CH3 R2=CH3 R3=NH2 R4=CN lg=F nu=Br rxn-id=2289 mp2_energy=-81018.03664463334 energy=-81017.97999185692 free_energy=-81018.03664086429 pbc="F F F"
C        0.79192175      -0.10280016      -0.00275166      -0.00834867       0.01980052      -0.04056865      -0.01208253       0.00005227      -0.00285041
C        1.29324213       1.36043052       0.06237662      -0.02294647       0.04676374      -0.00691095       0.00583070      -0.00799829       0.00044138
H        2.34440139       1.33308384      -0.25030215      -0.04309739      -0.03010075       0.00542236       0.00931960      -0.02192891       0.01154870
F       -0.59459535      -0.06933852      -0.27105004      -0.03848241      -0.03853597       0.01199253      -0.01321213       0.01102794       0.00651657
Br       4.43426062       0.55922224       1.27212189      -0.04960632       0.03044374       0.05120512       0.01308700       0.04028247       0.03324649
C        1.47269628      -0.81482055      -1.15968171       0.01686022      -0.01317761      -0.02520943      -0.02381209      -0.00164356      -0.00576418
H        0.86352180      -1.66670731      -1.46402117      -0.03313859      -0.06072908       0.02548747       0.00280789      -0.05022917       0.04515518
H        1.59099902      -0.15063038      -2.01987728      -0.05389461       0.04636847      -0.03725695      -0.09264577      -0.01333818      -0.03576486
H        2.46001406      -1.15738598      -0.85261194       0.07674435       0.02949077       0.01625681       0.01144983       0.05823333      -0.02346092
C        0.95655065      -0.84101450       1.30614673      -0.01229107       0.02280000      -0.02935190      -0.00178848       0.00002943      -0.00547782
H        2.01593544      -0.97791818       1.53033680      -0.00251589      -0.00207762      -0.03379097       0.00685599       0.05375682       0.01046153
H        0.49217860      -0.26654608       2.10618960       0.02510346       0.00627779       0.03931720      -0.04472796      -0.02072412      -0.01135065
H        0.45931861      -1.81035637       1.22087512       0.00387764      -0.00497388       0.01645052       0.04818619      -0.02922912      -0.01692979
N        1.18087706       1.95348541       1.39801396       0.00393009      -0.02702897      -0.01060279       0.00225799      -0.01107317       0.00202456
H        1.16611402       2.96571544       1.30424406       0.04387602      -0.04245670       0.03414724       0.01395607      -0.01163358       0.00512956
H        2.07105905       1.72435726       1.84266838       0.02787567       0.03894681      -0.04416599      -0.00165310      -0.02014718       0.00599216
C        0.52727381       2.15874059      -0.90208732       0.02076838      -0.03709218       0.05343298       0.02812432       0.00554047      -0.00652702
N       -0.08721657       2.82747531      -1.64749343       0.04528561       0.01528091      -0.02585459       0.04804648       0.01902255      -0.01239049
18
Properties=species:S:1:pos:R:3:mp2_forces:R:3:forces:R:3 R1=CH3 R2=CH3 R3=NH2 R4=CN lg=F nu=Br rxn-id=2289 mp2_energy=-81018.03664463334 energy=-81017.83186214424 free_energy=-81018.03664086429 pbc="F F F"
C        0.82388626      -0.10274785       0.00374551      -0.00834867       0.01980052      -0.04056865      -0.02777313      -0.00209627      -0.00614355
C        1.27347629       1.38340523       0.05990677      -0.02294647       0.04676374      -0.00691095       0.00667885      -0.01797589       0.00069580
H        2.31323518       1.39545864      -0.28928591      -0.04309739      -0.03010075       0.00542236       0.01503544      -0.04989597       0.01999484
F       -0.55866616      -0.10364884      -0.29656151      -0.03848241      -0.03853597       0.01199253      -0.02962465       0.01324092       0.00726913
Br       4.40236239       0.44075212       1.16906696      -0.04960632       0.03044374       0.05120512       0.05461317       0.07808320       0.05629547
C        1.54588975      -0.81020332      -1.14058682       0.01686022      -0.01317761      -0.02520943      -0.03948845      -0.00281655      -0.00839376
H        0.85478472      -1.51137179      -1.60755840      -0.03313859      -0.06072908       0.02548747      -0.01432068      -0.07405635       0.04856809
H        1.88652295      -0.10891580      -1.90723640      -0.05389461       0.04636847      -0.03725695      -0.12543437      -0.00297369      -0.05459000
H        2.42168355      -1.33962993      -0.76890305       0.07674435       0.02949077       0.01625681       0.01411069       0.07194268      -0.01536533
C        0.95801846      -0.83755674       1.32173997      -0.01229107       0.02280000      -0.02935190      -0.00842227       0.00355487      -0.00925468
H        1.99313176      -1.12481356       1.49909055      -0.00251589      -0.00207762      -0.03379097       0.02298416       0.10452350       0.01509833
H        0.61626713      -0.20306890       2.13753438       0.02510346       0.00627779       0.03931720      -0.08936300      -0.01847701      -0.02067978
H        0.32104848      -1.72431025       1.27150031       0.00387764      -0.00497388       0.01645052       0.07523541      -0.06113349      -0.02409089
N        1.17711800       1.98564545       1.39164144       0.00393009      -0.02702897      -0.01060279       0.00827273      -0.02382243       0.00360200
H        1.13982100       2.99930482       1.28729240       0.04387602      -0.04245670       0.03414724       0.01811509      -0.02420788       0.01145065
H        2.07714863       1.77555641       1.82435155       0.02787567       0.03894681      -0.04416599       0.00791857      -0.03527291       0.00141951
C        0.43717544       2.14198263      -0.87992179       0.02076838      -0.03709218       0.05343298       0.04262997       0.00879460      -0.01036606
N       -0.24435147       2.76915424      -1.60271950       0.04528561       0.01528091      -0.02585459       0.06883248       0.03258866      -0.01550977
18
Properties=species:S:1:pos:R:3:mp2_forces:R:3:forces:R:3 R1=CH3 R2=CH3 R3=NH2 R4=CN lg=F nu=Br rxn-id=2289 mp2_energy=-81018.03664463334 energy=-81017.7176145461 free_energy=-81018.03664086429 pbc="F F F"
C        0.85599770      -0.10048646       0.01086152      -0.00834867       0.01980052      -0.04056865      -0.05566820      -0.00377267      -0.01185504
C        1.26491491       1.40440194       0.05812955      -0.02294647       0.04676374      -0.00691095      -0.00521171      -0.02808998       0.00080374
H        2.29404799       1.45421894      -0.31626325      -0.04309739      -0.03010075       0.00542236       0.01314776      -0.08693919       0.03291080
F       -0.52433838      -0.12072139      -0.30508225      -0.03848241      -0.03853597       0.01199253      -0.05515115       0.00574030       0.00160910
Br       4.33681196       0.34674608       1.10505973      -0.04960632       0.03044374       0.05120512       0.10895731       0.08999683       0.06704780
C        1.59222872      -0.80687500      -1.13079684       0.01686022      -0.01317761      -0.02520943      -0.04989579       0.00037860      -0.00565852
H        0.87100403      -1.42224710      -1.66706189      -0.03313859      -0.06072908       0.02548747      -0.01174698      -0.07652438       0.01930489
H        2.03573645      -0.10449105      -1.84157572      -0.05389461       0.04636847      -0.03725695      -0.11436843       0.01099060      -0.03780348
H        2.40380701      -1.42618707      -0.75096150       0.07674435       0.02949077       0.01625681       0.00187460       0.07693418       0.01789850
C        0.96743173      -0.84021483       1.33332675      -0.01229107       0.02280000      -0.02935190      -0.01604489       0.00911336      -0.01467355
H        1.96785977      -1.23486702       1.48831442      -0.00251589      -0.00207762      -0.03379097       0.04346455       0.13495212      -0.01347988
H        0.70914393      -0.18227956       2.15976768       0.02510346       0.00627779       0.03931720      -0.09384225      -0.00269450      -0.02531710
H        0.24185221      -1.65764168       1.29761691       0.00387764      -0.00497388       0.01645052       0.07645041      -0.08040893      -0.00708536
N        1.16956621       2.01328727       1.38679492       0.00393009      -0.02702897      -0.01060279       0.00838364      -0.03147789       0.00389810
H        1.12723846       3.02757280       1.27295922       0.04387602      -0.04245670       0.03414724       0.02037401      -0.03096102       0.01377013
H        2.06915709       1.81158828       1.82171947       0.02787567       0.03894681      -0.04416599       0.01373625      -0.04549138      -0.00928856