12
Properties=species:S:1:pos:R:3:mp2_forces:R:3:forces:R:3 R1=CN R2=H R3=NO2 R4=H lg=Cl nu=Cl rxn-id=1231 mp2_energy=-35230.083790238685 energy=-35230.083790238685 free_energy=-35230.083790238685 pbc="F F F"
C        0.49440307      -0.03888793      -0.07201692      -0.00267524      -0.05984959      -0.02398002      -0.00267524      -0.05984959      -0.02398002
C        0.90243201       1.41596990      -0.00218846      -0.01821257      -0.05494689      -0.00110451      -0.01821257      -0.05494689      -0.00110451
H        1.99724399       1.43134021       0.04985662      -0.01430700      -0.00114509       0.04146285      -0.01430700      -0.00114509       0.04146285
Cl      -1.30646317      -0.19096490      -0.10857262      -0.03595158       0.05993181       0.03272995      -0.03595158       0.05993181       0.03272995
Cl       3.52113876      -0.37548365       0.65965756       0.01386842       0.05371061       0.04309714       0.01386842       0.05371061       0.04309714
H        0.85732429      -0.55832150       0.81230605       0.03893013      -0.01681587      -0.04084303       0.03893013      -0.01681587      -0.04084303
H        0.50855664       2.01107327      -0.82439749       0.01164148      -0.03566819       0.00149614       0.01164148      -0.03566819       0.00149614
C        1.01224944      -0.66189658      -1.28504973       0.02399948      -0.03251551       0.03108815       0.02399948      -0.03251551       0.03108815
N        1.31181013      -1.16445797      -2.30275609      -0.03250699       0.03739784      -0.05117487      -0.03250699       0.03739784      -0.05117487
N        0.39534825       2.04753429       1.24918361       0.01007918       0.03084187      -0.04452469       0.01007918       0.03084187      -0.04452469
O        0.12030349       3.24529671       1.18269933       0.00989432       0.02901154       0.01546159       0.00989432       0.02901154       0.01546159
O        0.32126824       1.35772625       2.25971913      -0.00475963      -0.00995253      -0.00370872      -0.00475963      -0.00995253      -0.00370872
12
Properties=species:S:1:pos:R:3:mp2_forces:R:3:forces:R:3 R1=CN R2=H R3=NO2 R4=H lg=Cl nu=Cl rxn-id=1231 mp2_energy=-35230.083790238685 energy=-35230.09342916234 free_energy=-35230.083790238685 pbc="F F F"
C        0.49023117      -0.05415253      -0.07782483      -0.00267524      -0.05984959      -0.02398002      -0.00237381      -0.00111609      -0.00094642
C        0.88769623       1.40498491      -0.02319077      -0.01821257      -0.05494689      -0.00110451       0.00743691      -0.00580890       0.00218977
H        1.98244731       1.43728028      -0.00222913      -0.01430700      -0.00114509       0.04146285       0.00990647      -0.00770024       0.01706209
Cl      -1.30999923      -0.20642890      -0.07870022      -0.03595158       0.05993181       0.03272995       0.00788626      -0.00065986       0.01956235
Cl       3.48977929      -0.32537510       0.80329714       0.01386842       0.05371061       0.04309714       0.00674591       0.01657338       0.02247077
H        0.88293405      -0.56780904       0.79567797       0.03893013      -0.01681587      -0.04084303       0.01672371      -0.01306242      -0.00701327
H        0.46280606       1.98728460      -0.83703882       0.01164148      -0.03566819       0.00149614       0.01839401      -0.00551630      -0.00432294
C        0.99713745      -0.65887916      -1.30400654       0.02399948      -0.03251551       0.03108815      -0.01280634       0.00323209      -0.01157955
N        1.29727574      -1.12070547      -2.34068246      -0.03250699       0.03739784      -0.05117487      -0.02740765       0.00987888      -0.01884885
N        0.42216937       2.03824643       1.24176494       0.01007918       0.03084187      -0.04452469      -0.00464994      -0.00036023      -0.00516620
O        0.20014791       3.24776174       1.19701115       0.00989432       0.02901154       0.01546159      -0.00534193       0.00050856      -0.01166640
O        0.33298978       1.33672034       2.24436255      -0.00475963      -0.00995253      -0.00370872      -0.01451360       0.00403112      -0.00174134
12
Properties=species:S:1:pos:R:3:mp2_forces:R:3:forces:R:3 R1=CN R2=H R3=NO2 R4=H lg=Cl nu=Cl rxn-id=1231 mp2_energy=-35230.083790238685 energy=-35230.08709499094 free_energy=-35230.083790238685 pbc="F F F"
C        0.48500945      -0.05380999      -0.08427157      -0.00267524      -0.05984959      -0.02398002      -0.00854799       0.00183949      -0.00128330
C        0.86841834       1.40912264      -0.03660917      -0.01821257      -0.05494689      -0.00110451       0.01165004      -0.00629663       0.00351709
H        1.96131767       1.45918463      -0.05647474      -0.01430700      -0.00114509       0.04146285       0.01448350      -0.00924400       0.02385624
Cl      -1.31424370      -0.22209030      -0.09850544      -0.03595158       0.05993181       0.03272995       0.01392425       0.00341956       0.02526036
Cl       3.45376891      -0.32347343       0.84292555       0.01386842       0.05371061       0.04309714       0.00923709       0.01868601       0.02111856
H        0.87467321      -0.55668955       0.79611744       0.03893013      -0.01681587      -0.04084303       0.02319322      -0.01740030      -0.00496186
H        0.40591936       1.99096938      -0.83064934       0.01164148      -0.03566819       0.00149614       0.02464072      -0.00792577      -0.00671188
C        1.00991847      -0.66213848      -1.30076284       0.02399948      -0.03251551       0.03108815      -0.01359484       0.00251468      -0.01385605
N        1.33056046      -1.12784651      -2.32944237      -0.03250699       0.03739784      -0.05117487      -0.03435032       0.01069859      -0.02370192
N        0.44608094       2.03425208       1.24873023       0.01007918       0.03084187      -0.04452469      -0.00827073      -0.00094752      -0.00697695
O        0.25704386       3.24962117       1.22409184       0.00989432       0.02901154       0.01546159      -0.01003565       0.00045923      -0.01435373
O        0.35714818       1.32182647       2.24329140      -0.00475963      -0.00995253      -0.00370872      -0.02232930       0.00419666      -0.00190656
12
Properties=species:S:1:pos:R:3:mp2_forces:R:3:forces:R:3 R1=CN R2=H R3=NO2 R4=H lg=Cl nu=Cl rxn-id=1231 mp2_energy=-35230.083790238685 energy=-35230.076560220674 free_energy=-35230.083790238685 pbc="F F F"
C        0.48475809      -0.05503358      -0.08695326      -0.00267524      -0.05984959      -0.02398002      -0.02467455       0.00955163      -0.00620654
C        0.85182137       1.41230521      -0.04571915      -0.01821257      -0.05494689      -0.00110451       0.01188734      -0.00239579       0.00404168
H        1.93991539       1.49023860      -0.10917899      -0.01430700      -0.00114509       0.04146285       0.01483612      -0.02712300       0.03067426
Cl      -1.31479925      -0.22864704      -0.13199345      -0.03595158       0.05993181       0.03272995       0.01338035      -0.00259534       0.03730255
Cl       3.40856301      -0.32089340       0.85946280       0.01386842       0.05371061       0.04309714       0.03091141       0.01658285       0.02604645
H        0.86035973      -0.54917156       0.80367157       0.03893013      -0.01681587      -0.04084303       0.02989050      -0.01299098      -0.00738228
H        0.34689504       1.98837011      -0.81833200       0.01164148      -0.03566819       0.00149614       0.03309919      -0.00017916      -0.01119931
C        1.03232769      -0.66846055      -1.29042270       0.02399948      -0.03251551       0.03108815      -0.02131828       0.00308341      -0.01913364
N        1.36358217      -1.13839600      -2.31379297      -0.03250699       0.03739784      -0.05117487      -0.03203901       0.01107093      -0.02539696
N        0.47020026       2.02964667       1.25750927       0.01007918       0.03084187      -0.04452469      -0.01354736       0.00017115      -0.00968401
O        0.31347529       3.24950996       1.24834882       0.00989432       0.02901154       0.01546159      -0.01320617       0.00197497      -0.01428795
O        0.37851636       1.30945968       2.24584104      -0.00475963      -0.00995253      -0.00370872      -0.02921955       0.00284933      -0.00477425
12
Properties=species:S:1:pos:R:3:mp2_forces:R:3:forces:R:3 R1=CN R2=H R3=NO2 R4=H lg=Cl nu=Cl rxn-id=1231 mp2_energy=-35230.083790238685 energy=-35230.06121233574 free_energy=-35230.083790238685 pbc="F F F"
C        0.49671793      -0.05748262      -0.08004715      -0.00267524      -0.05984959      -0.02398002      -0.05173749       0.02397415      -0.01963345
C        0.85107733       1.41388043      -0.04269752      -0.01821257      -0.05494689      -0.00110451      -0.00289763       0.00649215       0.00027133
H        1.93231562       1.53103457      -0.13315267      -0.01430700      -0.00114509       0.04146285       0.01033851      -0.08036577       0.03814603
Cl      -1.30580764      -0.21037106      -0.17513483      -0.03595158       0.05993181       0.03272995       0.00392892      -0.02596790       0.05536064
Cl       3.37119666      -0.33062048       0.81776087       0.01386842       0.05371061       0.04309714       0.08234620       0.00861630       0.04359623
H        0.84122228      -0.54981099       0.82344534       0.03893013      -0.01681587      -0.04084303       0.03758285       0.00540812      -0.01722546
H        0.31376481       1.97372805      -0.80397734       0.01164148      -0.03566819       0.00149614       0.03592429       0.03367394      -0.02410880
C        1.06559450      -0.67932484      -1.26903539       0.02399948      -0.03251551       0.03108815      -0.04752839       0.00904140      -0.02917467
N        1.37634744      -1.15393011      -2.29696256      -0.03250699       0.03739784      -0.05117487      -0.00914267       0.01157566      -0.01634760
N        0.47933299       2.02713742       1.26609379       0.01007918       0.03084187      -0.04452469      -0.02064329       0.00286045      -0.01226860
O        0.32867039       3.24759591       1.25809538       0.00989432       0.02901154       0.01546159      -0.00999275       0.00631088      -0.00922175
O        0.38518283       1.30709182       2.25405307      -0.00475963      -0.00995253      -0.00370872      -0.02817853      -0.00161937      -0.00939389
12
Properties=species:S:1:pos:R:3:mp2_forces:R:3:forces:R:3 R1=CN R2=H R3=NO2 R4=H lg=Cl nu=Cl rxn-id=1231 mp2_energy=-35230.083790238685 energy=-35230.028943762685 free_energy=-35230.083790238685 pbc="F F F"
C        0.51491145      -0.06191638      -0.07019813      -0.00267524      -0.05984959      -0.02398002      -0.08532572       0.03894982      -0.03726201
C        0.86130952       1.41471790      -0.03447412      -0.01821257      -0.05494689      -0.00110451      -0.04940698       0.00681376      -0.01522107
H        1.93181988       1.59081461      -0.15214393      -0.01430700      -0.00114509       0.04146285      -0.00645197      -0.17870123       0.04878832
Cl      -1.29141119      -0.18179587      -0.22012569      -0.03595158       0.05993181       0.03272995      -0.00311912      -0.05477277       0.07191356
Cl       3.32920110      -0.34490294       0.76854526       0.01386842       0.05371061       0.04309714       0.16572694      -0.00511724       0.07084574
H        0.81760168      -0.56060988       0.84456854       0.03893013      -0.01681587      -0.04084303       0.05821277       0.04148457      -0.02715988
H        0.28739106       1.94543336      -0.78713589       0.01164148      -0.03566819       0.00149614       0.03813560       0.10478647      -0.04535242
C        1.10170727      -0.69303273      -1.24588774       0.02399948      -0.03251551       0.03108815      -0.08533829       0.02801528      -0.04318648
N        1.37684368      -1.16839694      -2.28425672      -0.03250699       0.03739784      -0.05117487       0.02283244       0.01063995       0.00283390
N        0.48617276       2.02547564       1.27440616       0.01007918       0.03084187      -0.04452469      -0.02753328       0.00215460      -0.01549081
O        0.32533427       3.24456448       1.26056348       0.00989432       0.02901154       0.01546159      -0.00201856       0.00983044       0.00127953
O        0.39473365       1.30857685       2.26457977      -0.00475963      -0.00995253      -0.00370872      -0.02571383      -0.00408365      -0.01198838
12
Properties=species:S:1:pos:R:3:mp2_forces:R:3:forces:R:3 R1=CN R2=H R3=NO2 R4=H lg=Cl nu=Cl rxn-id=1231 mp2_energy=-35230.083790238685 energy=-35229.94752096713 free_energy=-35230.083790238685 pbc="F F F"
C        0.54760556      -0.07236783      -0.05946115      -0.00267524      -0.05984959      -0.02398002      -0.35162724       0.04309075      -0.08393200
C        0.88070900       1.41430055      -0.02687862      -0.01821257      -0.05494689      -0.00110451      -0.12436892      -0.01004053      -0.02843755
H        1.93097646       1.67989261      -0.18029446      -0.01430700      -0.00114509       0.04146285      -0.02991572      -0.31134443       0.04718744
Cl      -1.27302189      -0.16141985      -0.25630972      -0.03595158       0.05993181       0.03272995       0.06939228      -0.06506927       0.06969353
Cl       3.24821623      -0.33971857       0.74053776       0.01386842       0.05371061       0.04309714       0.35253039      -0.03941043       0.12408036
H        0.78246339      -0.58872314       0.86945241       0.03893013      -0.01681587      -0.04084303       0.14965702       0.11906363      -0.09369898
H        0.25788998       1.90210855      -0.76966828       0.01164148      -0.03566819       0.00149614       0.04480368       0.19129996      -0.04869884
C        1.13663786      -0.70722293      -1.23341845       0.02399948      -0.03251551       0.03108815      -0.09669390       0.04689445      -0.01406377
N        1.37344152      -1.17951679      -2.28412197      -0.03250699       0.03739784      -0.05117487       0.04345250       0.02334298       0.04824613
N        0.50338136       2.02251093       1.28176321       0.01007918       0.03084187      -0.04452469      -0.03870322      -0.00162879      -0.01675129
O        0.33918744       3.24157399       1.26427921       0.00989432       0.02901154       0.01546159       0.00852570       0.00580157       0.00955823
O        0.40812822       1.30751059       2.27256106      -0.00475963      -0.00995253      -0.00370872      -0.02705258      -0.00199990      -0.01318325
12
Properties=species:S:1:pos:R:3:mp2_forces:R:3:forces:R:3 R1=CN R2=H R3=NO2 R4=H lg=Cl nu=Cl rxn-id=1231 mp2_energy=-35230.083790238685 energy=-35229.722465966275 free_energy=-35230.083790238685 pbc="F F F"
C        0.63764199      -0.08044626      -0.03812828      -0.00267524      -0.05984959      -0.02398002      -1.62806732      -0.00415332      -0.29635471
C        0.91528583       1.41733623      -0.01676044      -0.01821257      -0.05494689      -0.00110451      -0.16767309      -0.06757755      -0.01419581
H        1.93600562       1.76291232      -0.19235796      -0.01430700      -0.00114509       0.04146285      -0.00171553      -0.32264140       0.02842982
Cl      -1.29319445      -0.14339903      -0.27769277      -0.03595158       0.05993181       0.03272995       0.73518785      -0.02317578       0.11883445
Cl       3.16074653      -0.33017714       0.70572414       0.01386842       0.05371061       0.04309714       0.56437608      -0.07747024       0.17695203
H        0.74507781      -0.62196283       0.89870396       0.03893013      -0.01681587      -0.04084303       0.38238317       0.16442344      -0.12833556
H        0.24661484       1.85352123      -0.75600118       0.01164148      -0.03566819       0.00149614       0.06974243       0.23893478      -0.03825906
C        1.16181362      -0.72230996      -1.23369071       0.02399948      -0.03251551       0.03108815       0.04086160       0.06869154       0.08459510
N        1.36247262      -1.18880433      -2.29578422      -0.03250699       0.03739784      -0.05117487       0.03559903       0.02746369       0.07753266
N        0.51291612       2.02294099       1.28553287       0.01007918       0.03084187      -0.04452469      -0.01691474      -0.00944774      -0.01471053
O        0.33709725       3.24038352       1.26306979       0.00989432       0.02901154       0.01546159       0.01329603       0.00351403       0.00961027
O        0.41313737       1.30893338       2.27582579      -0.00475963      -0.00995253      -0.00370872      -0.02707553       0.00143853      -0.00409865
12
Properties=species:S:1:pos:R:3:mp2_forces:R:3:forces:R:3 R1=CN R2=H R3=NO2 R4=H lg=Cl nu=Cl rxn-id=1231 mp2_energy=-35230.083790238685 energy=-35229.493150449685 free_energy=-35230.083790238685 pbc="F F F"
C        0.72127001      -0.07998972      -0.02344833      -0.00267524      -0.05984959      -0.02398002      -1.82385054       0.01066376      -0.34652887
C        0.92402571       1.42045324      -0.01543372      -0.01821257      -0.05494689      -0.00110451      -0.07185359      -0.04916788       0.00746445
H        1.93637202       1.78017016      -0.19344981      -0.01430700      -0.00114509       0.04146285       0.01972850      -0.21711508       0.01847577
Cl      -1.33271258      -0.14290061      -0.28412068      -0.03595158       0.05993181       0.03272995       0.72426118      -0.00201895       0.10011439
Cl       3.13209158      -0.32613251       0.69641177       0.01386842       0.05371061       0.04309714       0.47922585      -0.06619170       0.14475698
H        0.72578052      -0.62998127       0.90508386       0.03893013      -0.01681587      -0.04084303       0.44499204       0.09600523      -0.02940694
H        0.24354979       1.84106479      -0.75383468       0.01164148      -0.03566819       0.00149614       0.05841002       0.17926198      -0.01754547
C        1.16134441      -0.72557730      -1.23725015       0.02399948      -0.03251551       0.03108815       0.15878010       0.03490789       0.07913082
N        1.35940295      -1.19091237      -2.30024236      -0.03250699       0.03739784      -0.05117487       0.02304827       0.01048937       0.04627142
N        0.51377091       2.02340678       1.28608666       0.01007918       0.03084187      -0.04452469      -0.00122768      -0.00511468      -0.00932813
O        0.33664101       3.24034889       1.26285822       0.00989432       0.02901154       0.01546159       0.01016713       0.00481284       0.00810894
O        0.41407880       1.30897801       2.27578021      -0.00475963      -0.00995253      -0.00370872      -0.02168129       0.00346723      -0.00151335
12
Properties=species:S:1:pos:R:3:mp2_forces:R:3:forces:R:3 R1=CN R2=H R3=NO2 R4=H lg=Cl nu=Cl rxn-id=1231 mp2_energy=-35230.083790238685 energy=-35229.32196119923 free_energy=-35230.083790238685 pbc="F F F"
C        0.80689003      -0.08008411      -0.00751802      -0.00267524      -0.05984959      -0.02398002      -1.02839469       0.02788887      -0.21722910
C        0.92740148       1.42266079      -0.01519208      -0.01821257      -0.05494689      -0.00110451      -0.01592502      -0.01287145       0.01249568
H        1.93548103       1.79070154      -0.19428418      -0.01430700      -0.00114509       0.04146285       0.01913875      -0.10271544       0.01110586
Cl      -1.36814116      -0.14328635      -0.28924967      -0.03595158       0.05993181       0.03272995       0.30246172      -0.00308370       0.03648240
Cl       3.11041091      -0.32304243       0.68949856       0.01386842       0.05371061       0.04309714       0.27103146      -0.03665605       0.07716691
H        0.70491022      -0.63414163       0.90622190       0.03893013      -0.01681587      -0.04084303       0.28314457       0.02675136       0.02804426
H        0.24089702       1.83267150      -0.75280312       0.01164148      -0.03566819       0.00149614       0.02967740       0.09460043      -0.00311317
C        1.15449146      -0.72719067      -1.24060971       0.02399948      -0.03251551       0.03108815       0.12983119       0.00478828       0.03696854
N        1.35804497      -1.19202943      -2.30250203      -0.03250699       0.03739784      -0.05117487       0.01183302      -0.00571570       0.01679882
N        0.51391525       2.02362622       1.28644322       0.01007918       0.03084187      -0.04452469       0.00277711      -0.00055412      -0.00387740
O        0.33648051       3.24020488       1.26273511       0.00989432       0.02901154       0.01546159       0.00834503       0.00503386       0.00714755
O        0.41483342       1.30883779       2.27570101      -0.00475963      -0.00995253      -0.00370872      -0.01392054       0.00253365      -0.00199036
12
Properties=species:S:1:pos:R:3:mp2_forces:R:3:forces:R:3 R1=CN R2=H R3=NO2 R4=H lg=Cl nu=Cl rxn-id=1231 mp2_energy=-35230.083790238685 energy=-35229.263467515324 free_energy=-35230.083790238685 pbc="F F F"
C        0.89990942      -0.08186845       0.01163091      -0.00267524      -0.05984959      -0.02398002       0.08675719       0.00529661       0.01406214
C        0.92853919       1.42362679      -0.01521849      -0.01821257      -0.05494689      -0.00110451      -0.00519226      -0.00276698       0.01194754
H        1.93380054       1.80044440      -0.19527234      -0.01430700      -0.00114509       0.04146285      -0.00218219       0.01146777      -0.00143305
Cl      -1.39785735      -0.14383230      -0.29340054      -0.03595158       0.05993181       0.03272995      -0.04555441      -0.00913928      -0.01269640
Cl       3.08781559      -0.31987376       0.68244370       0.01386842       0.05371061       0.04309714       0.00050989       0.00041664      -0.00691717
H        0.67938779      -0.63585823       0.90317845       0.03893013      -0.01681587      -0.04084303      -0.02301656       0.00850104      -0.01104648
H        0.23823399       1.82439070      -0.75223721       0.01164148      -0.03566819       0.00149614      -0.00300115      -0.00234524       0.00250993
C        1.14328786      -0.72773376      -1.24390216       0.02399948      -0.03251551       0.03108815      -0.01073776      -0.00043690      -0.00250051
N        1.35672272      -1.19256091      -2.30368136      -0.03250699       0.03739784      -0.05117487      -0.00154944      -0.01156649       0.00407891
N        0.51383532       2.02363724       1.28666980       0.01007918       0.03084187      -0.04452469       0.00176511      -0.00085177      -0.00111546
O        0.33636896       3.23993946       1.26258561       0.00989432       0.02901154       0.01546159       0.00737111       0.00174187       0.00525789
O        0.41557113       1.30861692       2.27564463      -0.00475963      -0.00995253      -0.00370872      -0.00516952      -0.00031728      -0.00214734
12
Properties=species:S:1:pos:R:3:mp2_forces:R:3:forces:R:3 R1=CN R2=H R3=NO2 R4=H lg=Cl nu=Cl rxn-id=1231 mp2_energy=-35230.083790238685 energy=-35229.34122765194 free_energy=-35230.083790238685 pbc="F F F"
C        0.99161536      -0.08640682       0.03318580      -0.00267524      -0.05984959      -0.02398002       1.15219133      -0.04868509       0.26533976
C        0.92990311       1.42174584      -0.01456265      -0.01821257      -0.05494689      -0.00110451       0.00775179      -0.02563650       0.01940339
H        1.93169860       1.80970142      -0.19698797      -0.01430700      -0.00114509       0.04146285      -0.02796406       0.11598919      -0.02135458
Cl      -1.42160965      -0.14483758      -0.29644221      -0.03595158       0.05993181       0.03272995      -0.31405120      -0.02010592      -0.04688827
Cl       3.05743540      -0.31623725       0.67340181       0.01386842       0.05371061       0.04309714      -0.35031124       0.04146054      -0.11080718
H        0.65601814      -0.63289187       0.89474852       0.03893013      -0.01681587      -0.04084303      -0.29487774       0.04510044      -0.11274773
H        0.23634097       1.81548962      -0.75190401       0.01164148      -0.03566819       0.00149614      -0.02558805      -0.10393101       0.00577387
C        1.13249840      -0.72650626      -1.24495426       0.02399948      -0.03251551       0.03108815      -0.14241467       0.01483446      -0.01450195
N        1.35500594      -1.19169560      -2.30287760      -0.03250699       0.03739784      -0.05117487      -0.01924571      -0.00094448       0.01484105
N        0.51405656       2.02305072       1.28677194       0.01007918       0.03084187      -0.04452469       0.00411950      -0.00755886      -0.00003596
O        0.33638521       3.23921819       1.26219029       0.00989432       0.02901154       0.01546159       0.00748930      -0.00652721       0.00061880
O        0.41626710       1.30829768       2.27587131      -0.00475963      -0.00995253      -0.00370872       0.00290074      -0.00399557       0.00035882
12
Properties=species:S:1:pos:R:3:mp2_forces:R:3:forces:R:3 R1=CN R2=H R3=NO2 R4=H lg=Cl nu=Cl rxn-id=1231 mp2_energy=-35230.083790238685 energy=-35229.5188283771 free_energy=-35230.083790238685 pbc="F F F"
C        1.07387108      -0.09205912       0.05407803      -0.00267524      -0.05984959      -0.02398002       1.78494976      -0.11354343       0.44627829
C        0.93355813       1.41870298      -0.01309643      -0.01821257      -0.05494689      -0.00110451       0.06647366      -0.06750693       0.04223584
H        1.92989164       1.81913210      -0.19914083      -0.01430700      -0.00114509       0.04146285      -0.04234069       0.20135836      -0.04611959
Cl      -1.44466199      -0.14593108      -0.29928167      -0.03595158       0.05993181       0.03272995      -0.51043025      -0.02992197      -0.06963855
Cl       3.02214678      -0.31221520       0.66313146       0.01386842       0.05371061       0.04309714      -0.72993382       0.08120197      -0.21798901
H        0.63872352      -0.62792567       0.88470546       0.03893013      -0.01681587      -0.04084303      -0.37592362       0.11505820      -0.22516744
H        0.23511330       1.80570950      -0.75127967       0.01164148      -0.03566819       0.00149614      -0.02894791      -0.20247415       0.01522993
C        1.12602175      -0.72454373      -1.24418316       0.02399948      -0.03251551       0.03108815      -0.15680421       0.04356305       0.01828002
N        1.35279975      -1.19027947      -2.30119368      -0.03250699       0.03739784      -0.05117487      -0.04080597       0.01756612       0.03865331
N        0.51477368       2.02215911       1.28682531       0.01007918       0.03084187      -0.04452469       0.01677613      -0.01911642      -0.00027024
O        0.33639222       3.23828809       1.26169629       0.00989432       0.02901154       0.01546159       0.00734900      -0.01755336      -0.00515935
O        0.41698528       1.30789059       2.27617989      -0.00475963      -0.00995253      -0.00370872       0.00963791      -0.00863143       0.00366679
12
Properties=species:S:1:pos:R:3:mp2_forces:R:3:forces:R:3 R1=CN R2=H R3=NO2 R4=H lg=Cl nu=Cl rxn-id=1231 mp2_energy=-35230.083790238685 energy=-35229.74410578507 free_energy=-35230.083790238685 pbc="F F F"
C        1.15690102      -0.09797385       0.07586596      -0.00267524      -0.05984959      -0.02398002       1.34711251      -0.09137081       0.34455301
C        0.94418097       1.41417958      -0.00981878      -0.01821257      -0.05494689      -0.00110451       0.15429401      -0.07806446       0.06381003
H        1.92847061       1.83546067      -0.20306042      -0.01430700      -0.00114509       0.04146285      -0.03245589       0.25320083      -0.06834927
Cl      -1.47984499      -0.14771634      -0.30364452      -0.03595158       0.05993181       0.03272995      -0.56110789      -0.03047239      -0.07044513
Cl       2.98145804      -0.30821696       0.65256144       0.01386842       0.05371061       0.04309714      -0.61593317       0.05525257      -0.16051049
H        0.62437177      -0.61841811       0.86931456       0.03893013      -0.01681587      -0.04084303      -0.24660282       0.16418232      -0.26971289
H        0.23458798       1.78688647      -0.74926499       0.01164148      -0.03566819       0.00149614      -0.01977664      -0.29112342       0.03684248
C        1.12654408      -0.72098642      -1.23988253       0.02399948      -0.03251551       0.03108815      -0.02677484       0.06210301       0.06702396
N        1.34739035      -1.18728200      -2.29792449      -0.03250699       0.03739784      -0.05117487      -0.06249190       0.03456410       0.06099367
N        0.51702422       2.02004427       1.28698712       0.01007918       0.03084187      -0.04452469       0.04176634      -0.03199210       0.00100769
O        0.33648813       3.23611743       1.26050812       0.00989432       0.02901154       0.01546159       0.00670526      -0.03051024      -0.01109110
O        0.41804296       1.30683335       2.27679952      -0.00475963      -0.00995253      -0.00370872       0.01526502      -0.01576940       0.00587806
12
Properties=species:S:1:pos:R:3:mp2_forces:R:3:forces:R:3 R1=CN R2=H R3=NO2 R4=H lg=Cl nu=Cl rxn-id=1231 mp2_energy=-35230.083790238685 energy=-35229.934590343466 free_energy=-35230.083790238685 pbc="F F F"
C        1.23871985      -0.09222836       0.09275214      -0.00267524      -0.05984959      -0.02398002       0.24352933       0.03225292       0.04420496
C        0.97955657       1.40957373      -0.00362538      -0.01821257      -0.05494689      -0.00110451       0.09752057      -0.01433781       0.02064989
H        1.92535050       1.89282802      -0.22860477      -0.01430700      -0.00114509       0.04146285      -0.00871256       0.17323304      -0.07294663
Cl      -1.58290194      -0.14668111      -0.30913122      -0.03595158       0.05993181       0.03272995      -0.30709830      -0.00603813      -0.02608471