15
Properties=species:S:1:pos:R:3:mp2_forces:R:3:forces:R:3 R1=NH2 R2=H R3=CH3 R4=CN lg=F nu=Cl rxn-id=2463 mp2_energy=-22448.06135170081 energy=-22448.061348274787 free_energy=-22448.061348274787 pbc="F F F"
C        0.80407618      -0.02454542      -0.06649149       0.00155317      -0.04257675       0.04902634       0.00162399      -0.04261764       0.04903982
C        1.08969303       1.47009559      -0.04768833       0.02867988       0.01794335      -0.00123304       0.02864742       0.01784091      -0.00125026
H        2.18323119       1.49399669      -0.09779414       0.03996925       0.08187739       0.00235196       0.03998199       0.08188576       0.00234380
F       -0.58418077      -0.22479433       0.11636766      -0.00841798       0.02529520       0.01418979      -0.00838979       0.02532083       0.01418133
Cl       3.79553171      -0.40242134       1.29056529      -0.01245903      -0.00255735       0.04365061      -0.01245255      -0.00255678       0.04365209
H        1.33321610      -0.44719128       0.78463577      -0.03399561      -0.03795441       0.02790681      -0.03403414      -0.03793380       0.02786028
N        1.24654939      -0.64706432      -1.27266289      -0.01017701       0.02772425       0.02493369      -0.01021126       0.02775227       0.02500367
H        0.45796224      -0.82756155      -1.87940917       0.04259660       0.04550663      -0.01391700       0.04259636       0.04550243      -0.01391923
H        1.73739934      -1.50145649      -1.05082953      -0.02680667      -0.02388712      -0.06095523      -0.02680884      -0.02388682      -0.06096515
C        0.62750677       2.12511122       1.25624676       0.01240730      -0.02627344      -0.01206222       0.01239799      -0.02627239      -0.01206105
H       -0.44931468       2.01116036       1.39560508       0.01325849      -0.01877102      -0.05353019       0.01323960      -0.01877420      -0.05353026
H        1.15055898       1.63074207       2.07774986       0.00103922       0.01496614       0.00473067       0.00104902       0.01495617       0.00474846
H        0.87246178       3.19011010       1.28119544       0.02936310      -0.04323670      -0.04060642       0.02936952      -0.04320047      -0.04060326
C        0.55837483       2.14334210      -1.23269838      -0.00152190       0.00936124       0.01502038      -0.00159450       0.00940068       0.01495321
N        0.14867889       2.71821188      -2.17122496      -0.07548880      -0.02741740       0.00049386      -0.07541479      -0.02741696       0.00054655
15
Properties=species:S:1:pos:R:3:mp2_forces:R:3:forces:R:3 R1=NH2 R2=H R3=CH3 R4=CN lg=F nu=Cl rxn-id=2463 mp2_energy=-22448.06135170081 energy=-22448.076540581296 free_energy=-22448.061348274787 pbc="F F F"
C        0.80996992      -0.03339871      -0.07049447       0.00155317      -0.04257675       0.04902634       0.00365252      -0.00391854      -0.00309658
C        1.12480857       1.45638354      -0.04580608       0.02867988       0.01794335      -0.00123304       0.00219984      -0.00364329      -0.00320731
H        2.21648619       1.49621418      -0.10495648       0.03996925       0.08187739       0.00235196       0.00195695      -0.00290073      -0.00561824
F       -0.59377752      -0.18138992       0.05798556      -0.00841798       0.02529520       0.01418979       0.00405609      -0.00504373       0.01200415
Cl       3.74242037      -0.30023931       1.38618203      -0.01245903      -0.00255735       0.04365061      -0.01205177       0.03158585       0.04312721
H        1.28797322      -0.48376982       0.79627632      -0.03399561      -0.03795441       0.02790681       0.01223491      -0.00353291      -0.00749987
N        1.25816530      -0.64796391      -1.27252877      -0.01017701       0.02772425       0.02493369      -0.00324920      -0.00260376      -0.00500518
H        0.48714302      -0.74493935      -1.91902076       0.04259660       0.04550663      -0.01391700       0.00097459       0.02166366      -0.01503563
H        1.67424608      -1.54339479      -1.07515539      -0.02680667      -0.02388712      -0.06095523      -0.02175990      -0.01320126      -0.01196436
C        0.66433969       2.10991431       1.25425103       0.01240730      -0.02627344      -0.01206222       0.00611219      -0.00331738      -0.00211285
H       -0.40903328       1.96937856       1.39827818       0.01325849      -0.01877102      -0.05353019       0.00489310       0.00374854      -0.00328651
H        1.21203314       1.64439945       2.07624093       0.00103922       0.01496614       0.00473067       0.00374260      -0.00845864      -0.00324546
H        0.88320678       3.17940602       1.25385314       0.02936310      -0.04323670      -0.04060642       0.01344637      -0.00444510      -0.00038753
C        0.54700721       2.11881903      -1.21589664      -0.00152190       0.00936124       0.01502038      -0.00388203      -0.00323760       0.00028981
N        0.06675628       2.66831601      -2.13564162      -0.07548880      -0.02741740       0.00049386      -0.01232626      -0.00269511       0.00503836
15
Properties=species:S:1:pos:R:3:mp2_forces:R:3:forces:R:3 R1=NH2 R2=H R3=CH3 R4=CN lg=F nu=Cl rxn-id=2463 mp2_energy=-22448.06135170081 energy=-22448.070748765098 free_energy=-22448.061348274787 pbc="F F F"
C        0.79943346      -0.03141816      -0.06549612       0.00155317      -0.04257675       0.04902634       0.00437006      -0.00463992      -0.00357643
C        1.12182129       1.45671284      -0.04039369       0.02867988       0.01794335      -0.00123304       0.00343640      -0.00466018      -0.00305820
H        2.21360555       1.49094286      -0.09769795       0.03996925       0.08187739       0.00235196       0.00358018      -0.00615613      -0.00323958
F       -0.60968569      -0.17080920       0.02384672      -0.00841798       0.02529520       0.01418979       0.00448198      -0.00538975       0.02025881
Cl       3.75431650      -0.30728328       1.32086424      -0.01245903      -0.00255735       0.04365061      -0.00873071       0.03406925       0.04835800
H        1.24857313      -0.48304406       0.81547057      -0.03399561      -0.03795441       0.02790681       0.01774283      -0.00447491      -0.01022900
N        1.27553436      -0.65355827      -1.25154431      -0.01017701       0.02772425       0.02493369      -0.00702556      -0.00326317      -0.00729990
H        0.52899547      -0.72240430      -1.92866456       0.04259660       0.04550663      -0.01391700      -0.00064876       0.02109213      -0.01826200
H        1.65738079      -1.56244300      -1.04473773      -0.02680667      -0.02388712      -0.06095523      -0.02229019      -0.01218818      -0.01605496
C        0.66331919       2.11141398       1.26017781       0.01240730      -0.02627344      -0.01206222       0.00543725      -0.00264850      -0.00341929
H       -0.40207991       1.93690427       1.42735254       0.01325849      -0.01877102      -0.05353019       0.00224554       0.00940898      -0.01030073
H        1.24083043       1.67219588       2.07627632       0.00103922       0.01496614       0.00473067      -0.00274142      -0.01042516      -0.00180855
H        0.84599220       3.18724074       1.24483718       0.02936310      -0.04323670      -0.04060642       0.01781240      -0.00410880      -0.00040554
C        0.55116323       2.11863519      -1.21441918      -0.00152190       0.00936124       0.01502038      -0.00228794      -0.00365939       0.00096445
N        0.08254497       2.66464978      -2.14230489      -0.07548880      -0.02741740       0.00049386      -0.01538207      -0.00295627       0.00807293
15
Properties=species:S:1:pos:R:3:mp2_forces:R:3:forces:R:3 R1=NH2 R2=H R3=CH3 R4=CN lg=F nu=Cl rxn-id=2463 mp2_energy=-22448.06135170081 energy=-22448.0604396015 free_energy=-22448.061348274787 pbc="F F F"
C        0.79314051      -0.02640598      -0.05806729       0.00155317      -0.04257675       0.04902634      -0.00013838      -0.00689552      -0.00550320
C        1.12483789       1.45974683      -0.03364381       0.02867988       0.01794335      -0.00123304      -0.00213288      -0.00676842      -0.00323203
H        2.21666341       1.49054053      -0.08614880       0.03996925       0.08187739       0.00235196      -0.00113602      -0.01448175      -0.00190353
F       -0.62064523      -0.15304250      -0.00989982      -0.00841798       0.02529520       0.01418979       0.00022699      -0.01081201       0.03033050
Cl       3.75406861      -0.31555345       1.22695843      -0.01245903      -0.00255735       0.04365061       0.01811531       0.03075960       0.06428965
H        1.21036238      -0.47905374       0.83730608      -0.03399561      -0.03795441       0.02790681       0.02093943      -0.00619465      -0.01459502
N        1.29348633      -0.65926787      -1.22712298      -0.01017701       0.02772425       0.02493369      -0.01367355      -0.00427529      -0.01017058
H        0.56804828      -0.70522233      -1.92779038       0.04259660       0.04550663      -0.01391700       0.00105713       0.01937477      -0.02761924
H        1.64126830      -1.58010935      -1.01009470      -0.02680667      -0.02388712      -0.06095523      -0.02070214      -0.00950111      -0.02128475
C        0.65981743       2.11186637       1.26638006       0.01240730      -0.02627344      -0.01206222       0.00294350      -0.00022468      -0.00438726
H       -0.39723946       1.90111534       1.44730561       0.01325849      -0.01877102      -0.05353019      -0.00219175       0.02076803      -0.01063128
H        1.25933353       1.69645410       2.07899951       0.00103922       0.01496614       0.00473067      -0.00792541      -0.00957726      -0.00140129
H        0.80458239       3.19286603       1.24319372       0.02936310      -0.04323670      -0.04060642       0.02365969      -0.00232856      -0.00392695
C        0.56171102       2.11826184      -1.21310432      -0.00152190       0.00936124       0.01502038      -0.00366592      -0.00244436       0.00066438
N        0.10230959       2.65553944      -2.15070434      -0.07548880      -0.02741740       0.00049386      -0.01537602       0.00260121       0.00937058
15
Properties=species:S:1:pos:R:3:mp2_forces:R:3:forces:R:3 R1=NH2 R2=H R3=CH3 R4=CN lg=F nu=Cl rxn-id=2463 mp2_energy=-22448.06135170081 energy=-22448.054944448108 free_energy=-22448.061348274787 pbc="F F F"
C        0.79659319      -0.02176642      -0.05383091       0.00155317      -0.04257675       0.04902634      -0.00612571      -0.00937760      -0.00676134
C        1.13272391       1.46335209      -0.02986361       0.02867988       0.01794335      -0.00123304      -0.01199063      -0.00797733      -0.00353299
H        2.22459028       1.49651674      -0.07779067       0.03996925       0.08187739       0.00235196      -0.00985244      -0.02282624      -0.00339115
F       -0.61809695      -0.13999666      -0.01345274      -0.00841798       0.02529520       0.01418979      -0.00716094      -0.02085237       0.03201206
Cl       3.74922571      -0.32016142       1.18098280      -0.01245903      -0.00255735       0.04365061       0.04235289       0.02312115       0.07494992
H        1.20591002      -0.47658254       0.84384940      -0.03399561      -0.03795441       0.02790681       0.02256341      -0.00514854      -0.01849560
N        1.29535871      -0.65764324      -1.22236627      -0.01017701       0.02772425       0.02493369      -0.01623263      -0.00421790      -0.01111722
H        0.56306056      -0.71242246      -1.91512493       0.04259660       0.04550663      -0.01391700       0.00516872       0.01566119      -0.03383352
H        1.64796775      -1.57584234      -1.00141439      -0.02680667      -0.02388712      -0.06095523      -0.01708888      -0.00766512      -0.02141184
C        0.65553625       2.11119602       1.26761511       0.01240730      -0.02627344      -0.01206222       0.00038185       0.00279978      -0.00388482
H       -0.40392500       1.89964991       1.43267866       0.01325849      -0.01877102      -0.05353019      -0.00557699       0.02944622      -0.00010388
H        1.24274625       1.68997604       2.08610862       0.00103922       0.01496614       0.00473067      -0.00532451      -0.00651945      -0.00397298
H        0.80190398       3.19183412       1.25324322       0.02936310      -0.04323670      -0.04060642       0.02528883       0.00114572      -0.00831445
C        0.57065248       2.11648887      -1.21267755      -0.00152190       0.00936124       0.01502038      -0.00675453      -0.00066604      -0.00055584
N        0.10749784       2.64313655      -2.15438978      -0.07548880      -0.02741740       0.00049386      -0.00964843       0.01307653       0.00841365
15
Properties=species:S:1:pos:R:3:mp2_forces:R:3:forces:R:3 R1=NH2 R2=H R3=CH3 R4=CN lg=F nu=Cl rxn-id=2463 mp2_energy=-22448.06135170081 energy=-22448.04599018669 free_energy=-22448.061348274787 pbc="F F F"
C        0.80217451      -0.01278069      -0.05165100       0.00155317      -0.04257675       0.04902634      -0.01042106      -0.01444657      -0.00638616
C        1.14557452       1.47072430      -0.02783276       0.02867988       0.01794335      -0.00123304      -0.02803983      -0.01040533      -0.00509354
H        2.23729268       1.51301002      -0.07544858       0.03996925       0.08187739       0.00235196      -0.02622680      -0.04559995      -0.00116797
F       -0.61408470      -0.11511558      -0.02583681      -0.00841798       0.02529520       0.01418979      -0.01853470      -0.04218428       0.04014001
Cl       3.73873094      -0.33322923       1.14979989      -0.01245903      -0.00255735       0.04365061       0.06419783       0.01468574       0.08389225
H        1.19707768      -0.47183257       0.84990980      -0.03399561      -0.03795441       0.02790681       0.03141858      -0.00142728      -0.02356858
N        1.29850445      -0.65360767      -1.21933962      -0.01017701       0.02772425       0.02493369      -0.01663985      -0.00366802      -0.01204939
H        0.55529346      -0.72078850      -1.89827818       0.04259660       0.04550663      -0.01391700       0.01078110       0.00897670      -0.04975795
H        1.65601764      -1.56868133      -0.99233862      -0.02680667      -0.02388712      -0.06095523      -0.01001471      -0.00352104      -0.01802781
C        0.65518151       2.10874122       1.26943336       0.01240730      -0.02627344      -0.01206222      -0.00358959       0.00706407      -0.00430778
H       -0.40518524       1.88928152       1.41768973       0.01325849      -0.01877102      -0.05353019      -0.01018336       0.04514397       0.01626427
H        1.23214679       1.68042122       2.09175323       0.00103922       0.01496614       0.00473067      -0.00099163      -0.00051222      -0.00932216
H        0.79706237       3.18937314       1.26792402       0.02936310      -0.04323670      -0.04060642       0.02891399       0.00669559      -0.01324563
C        0.57632344       2.11332086      -1.21293262      -0.00152190       0.00936124       0.01502038      -0.01166380       0.00572437      -0.00260438
N        0.09963493       2.61889857      -2.15928485      -0.07548880      -0.02741740       0.00049386       0.00099385       0.03347423       0.00523482
15
Properties=species:S:1:pos:R:3:mp2_forces:R:3:forces:R:3 R1=NH2 R2=H R3=CH3 R4=CN lg=F nu=Cl rxn-id=2463 mp2_energy=-22448.06135170081 energy=-22448.01390508743 free_energy=-22448.061348274787 pbc="F F F"
C        0.80760852       0.00005526      -0.04579437       0.00155317      -0.04257675       0.04902634      -0.02993538      -0.01124355      -0.01304828
C        1.16306399       1.48260720      -0.02471878       0.02867988       0.01794335      -0.00123304      -0.05237997      -0.01292524      -0.00679216
H        2.25351893       1.55187172      -0.07689852       0.03996925       0.08187739       0.00235196      -0.04688540      -0.11816022       0.00899411
F       -0.61211450      -0.07356711      -0.07203207      -0.00841798       0.02529520       0.01418979      -0.03476304      -0.07316856       0.06036730
Cl       3.70388332      -0.36094846       1.07556964      -0.01245903      -0.00255735       0.04365061       0.12202346      -0.00309709       0.10900298
H        1.15505885      -0.46497336       0.87121711      -0.03399561      -0.03795441       0.02790681       0.06272605       0.01287331      -0.03661765
N        1.31844860      -0.65358472      -1.20107774      -0.01017701       0.02772425       0.02493369      -0.03376129      -0.00065611      -0.01449627
H        0.56816828      -0.71927689      -1.87005786       0.04259660       0.04550663      -0.01391700       0.02725702      -0.01074366      -0.10062919
H        1.65676521      -1.57552394      -0.96351065      -0.02680667      -0.02388712      -0.06095523      -0.00284258       0.02008799      -0.00262712
C        0.65856801       2.10344172       1.27544332       0.01240730      -0.02627344      -0.01206222      -0.01207977       0.01826850      -0.00373357
H       -0.39125603       1.83724007       1.42432810       0.01325849      -0.01877102      -0.05353019      -0.02136877       0.07421420       0.03921080
H        1.25262194       1.69248982       2.09489089       0.00103922       0.01496614       0.00473067      -0.00210230       0.00649986      -0.01745579
H        0.75575641       3.18785341       1.27759981       0.02936310      -0.04323670      -0.04060642       0.03480552       0.01677502      -0.01412291
C        0.58231241       2.10999599      -1.21262744      -0.00152190       0.00936124       0.01502038      -0.01393666       0.02400006      -0.00718089
N        0.09934103       2.59005455      -2.16876449      -0.07548880      -0.02741740       0.00049386       0.00324312       0.05727548      -0.00087136
15
Properties=species:S:1:pos:R:3:mp2_forces:R:3:forces:R:3 R1=NH2 R2=H R3=CH3 R4=CN lg=F nu=Cl rxn-id=2463 mp2_energy=-22448.06135170081 energy=-22447.90815420577 free_energy=-22448.061348274787 pbc="F F F"
C        0.83146156       0.00736789      -0.03153673       0.00155317      -0.04257675       0.04902634      -0.11468573       0.01096332      -0.02988314
C        1.20064138       1.49262248      -0.01908359       0.02867988       0.01794335      -0.00123304      -0.11497867      -0.00807694      -0.01381449
H        2.28539516       1.64154421      -0.08407542       0.03996925       0.08187739       0.00235196      -0.07417273      -0.28249638       0.03693777
F       -0.59151929      -0.01879280      -0.12634015      -0.00841798       0.02529520       0.01418979      -0.07803356      -0.12406407       0.09097514
Cl       3.61562217      -0.37080731       0.98163937      -0.01245903      -0.00255735       0.04365061       0.29987787      -0.05313033       0.17632869
H        1.09922176      -0.47415366       0.90356451      -0.03399561      -0.03795441       0.02790681       0.14792049       0.05761115      -0.06708532
N        1.35111043      -0.65521029      -1.18194615      -0.01017701       0.02772425       0.02493369      -0.09966077       0.01580849      -0.01103757
H        0.56206795      -0.70245074      -1.80125593       0.04259660       0.04550663      -0.01391700       0.07729803      -0.06986427      -0.25860643
H        1.65314888      -1.59633022      -0.95404267      -0.02680667      -0.02388712      -0.06095523      -0.00014210       0.07369880       0.06324254
C        0.66667550       2.09083381       1.27833471       0.01240730      -0.02627344      -0.01206222      -0.02659487       0.04268656       0.00275238
H       -0.37177703       1.77419196       1.40677085       0.01325849      -0.01877102      -0.05353019      -0.04258738       0.11760375       0.09009433
H        1.26381951       1.69931658       2.10465628       0.00103922       0.01496614       0.00473067       0.00429092       0.01043684      -0.03197433
H        0.71785467       3.17672114       1.28261999       0.02936310      -0.04323670      -0.04060642       0.03340656       0.04063218       0.00041354
C        0.58976699       2.09209815      -1.20722991      -0.00152190       0.00936124       0.01502038      -0.00220250       0.08949059      -0.02106859
N        0.09825535       2.55078409      -2.16850819      -0.07548880      -0.02741740       0.00049386      -0.00973555       0.07870032      -0.02727454
15
Properties=species:S:1:pos:R:3:mp2_forces:R:3:forces:R:3 R1=NH2 R2=H R3=CH3 R4=CN lg=F nu=Cl rxn-id=2463 mp2_energy=-22448.06135170081 energy=-22447.719055180656 free_energy=-22448.061348274787 pbc="F F F"
C        0.86756255       0.00464117      -0.02295235       0.00155317      -0.04257675       0.04902634      -0.43067056       0.02117424      -0.03359359
C        1.23738414       1.49472959      -0.01423398       0.02867988       0.01794335      -0.00123304      -0.19166432      -0.00386827      -0.03211137
H        2.30929571       1.73217747      -0.09545655       0.03996925       0.08187739       0.00235196      -0.06395852      -0.40427683       0.06356817
F       -0.56740446       0.02119199      -0.15635573      -0.00841798       0.02529520       0.01418979      -0.04843370      -0.15365690       0.12287244
Cl       3.52020084      -0.35375321       0.92408801      -0.01245903      -0.00255735       0.04365061       0.55131895      -0.11512673       0.26492289
H        1.05130322      -0.49186190       0.92558818      -0.03399561      -0.03795441       0.02790681       0.27852132       0.07095795      -0.08687753
N        1.38244775      -0.66170047      -1.17757631      -0.01017701       0.02772425       0.02493369      -0.19532681       0.07127639       0.02811741
H        0.54248912      -0.67719583      -1.72140927       0.04259660       0.04550663      -0.01391700       0.16133146      -0.16716846      -0.46907487
H        1.64970736      -1.62293886      -0.97329495      -0.02680667      -0.02388712      -0.06095523      -0.00959582       0.12217191       0.13671374
C        0.67536836       2.07788891       1.27791149       0.01240730      -0.02627344      -0.01206222      -0.02821199       0.06543672       0.00399605
H       -0.35707383       1.73512167       1.37904712       0.01325849      -0.01877102      -0.05353019      -0.05445631       0.14586590       0.13467827
H        1.26406106       1.69782266       2.11487425       0.00103922       0.01496614       0.00473067       0.00865352       0.00785781      -0.04309855
H        0.70506605       3.16441857       1.28231616       0.02936310      -0.04323670      -0.04060642       0.02464294       0.05122350       0.01123377
C        0.59109460       2.06263491      -1.20013961      -0.00152190       0.00936124       0.01502038       0.04178932       0.21418817      -0.03796294
N        0.10024250       2.52455860      -2.15883948      -0.07548880      -0.02741740       0.00049386      -0.04393948       0.07394461      -0.06338388
15
Properties=species:S:1:pos:R:3:mp2_forces:R:3:forces:R:3 R1=NH2 R2=H R3=CH3 R4=CN lg=F nu=Cl rxn-id=2463 mp2_energy=-22448.06135170081 energy=-22447.43184935948 free_energy=-22448.061348274787 pbc="F F F"
C        0.93407563       0.00065352      -0.01712873       0.00155317      -0.04257675       0.04902634      -1.84793155       0.03719320      -0.21122596
C        1.26725542       1.49524263      -0.00928905       0.02867988       0.01794335      -0.00123304      -0.25854393      -0.04272197      -0.05639690
H        2.31918295       1.79447978      -0.10516321       0.03996925       0.08187739       0.00235196      -0.01739830      -0.40807595       0.06646488
F       -0.55978506       0.04529891      -0.17566366      -0.00841798       0.02529520       0.01418979       0.86749207      -0.16073783       0.25595001
Cl       3.43586721      -0.33601064       0.88453425      -0.01245903      -0.00255735       0.04365061       0.79263646      -0.16917035       0.34852164
H        1.00907369      -0.50360847       0.93908099      -0.03399561      -0.03795441       0.02790681       0.45350129       0.04415558      -0.08144642
N        1.41340955      -0.67274757      -1.18212934      -0.01017701       0.02772425       0.02493369      -0.26850964       0.16546135       0.10359652
H        0.51734216      -0.65027445      -1.64914836       0.04259660       0.04550663      -0.01391700       0.29363041      -0.27130297      -0.59962545
H        1.65045236      -1.64210767      -0.99537387      -0.02680667      -0.02388712      -0.06095523      -0.01753156       0.13036055       0.17150400
C        0.67956378       2.06794685       1.27718877       0.01240730      -0.02627344      -0.01206222      -0.00036770       0.08267616      -0.00116280
H       -0.34903168       1.71358458       1.35753562       0.01325849      -0.01877102      -0.05353019      -0.04649574       0.15921466       0.15687277
H        1.26223322       1.69652384       2.12168504       0.00103922       0.01496614       0.00473067       0.00115691       0.00423106      -0.04349318
H        0.70206707       3.15662589       1.27993467       0.02936310      -0.04323670      -0.04060642       0.00996928       0.03852967       0.01579314
C        0.58411962       2.02941597      -1.19415608      -0.00152190       0.00936124       0.01502038       0.11614981       0.34901210      -0.04797578
N        0.10591908       2.51271210      -2.14834009      -0.07548880      -0.02741740       0.00049386      -0.07775783       0.04117472      -0.07737646
15
Properties=species:S:1:pos:R:3:mp2_forces:R:3:forces:R:3 R1=NH2 R2=H R3=CH3 R4=CN lg=F nu=Cl rxn-id=2463 mp2_energy=-22448.06135170081 energy=-22446.94248861023 free_energy=-22448.061348274787 pbc="F F F"
C        1.01328722      -0.00091311      -0.00809301       0.00155317      -0.04257675       0.04902634      -4.49362651       0.17384843      -0.59651846
C        1.27839658       1.49697348      -0.00674245       0.02867988       0.01794335      -0.00123304      -0.12851039      -0.05747681      -0.02848689
H        2.32001728       1.81198681      -0.10794338       0.03996925       0.08187739       0.00235196       0.00768705      -0.33094767       0.05629070
F       -0.59648745       0.05254659      -0.18690010      -0.00841798       0.02529520       0.01418979       3.01149304      -0.25019806       0.49943002
Cl       3.40182904      -0.32882420       0.86963950      -0.01245903      -0.00255735       0.04365061       0.77348532      -0.16998173       0.33809312
H        0.98956326      -0.50534479       0.94248693      -0.03399561      -0.03795441       0.02790681       0.58587163       0.03937375      -0.03126383
N        1.42486682      -0.67988709      -1.18639568      -0.01017701       0.02772425       0.02493369      -0.10900964       0.14997503       0.10725787
H        0.50492722      -0.63833019      -1.62363442       0.04259660       0.04550663      -0.01391700       0.30100328      -0.24352720      -0.50624903
H        1.65082364      -1.64790065      -1.00262166      -0.02680667      -0.02388712      -0.06095523      -0.00386626       0.11451271       0.15673995
C        0.67964574       2.06434214       1.27720601       0.01240730      -0.02627344      -0.01206222       0.01654829       0.06680061      -0.00215911
H       -0.34689692       1.70640962       1.35091854       0.01325849      -0.01877102      -0.05353019      -0.02060833       0.14175734       0.13543764
H        1.26238835       1.69656940       2.12354371       0.00103922       0.01496614       0.00473067       0.00040641       0.00090319      -0.04189015
H        0.70126396       3.15496172       1.27923078       0.02936310      -0.04323670      -0.04060642       0.00987157       0.02378794       0.01420093
C        0.57898765       2.01455223      -1.19240025      -0.00152190       0.00936124       0.01502038       0.11525181       0.30493027      -0.02304179
N        0.10913259       2.51059334      -2.14472753      -0.07548880      -0.02741740       0.00049386      -0.06599727       0.03624220      -0.07784098
15
Properties=species:S:1:pos:R:3:mp2_forces:R:3:forces:R:3 R1=NH2 R2=H R3=CH3 R4=CN lg=F nu=Cl rxn-id=2463 mp2_energy=-22448.06135170081 energy=-22446.565615998188 free_energy=-22448.061348274787 pbc="F F F"
C        1.08893394      -0.00383785       0.00194296       0.00155317      -0.04257675       0.04902634      -2.55289136       0.14981497      -0.38690658
C        1.28057244       1.49797289      -0.00630743       0.02867988       0.01794335      -0.00123304      -0.02932524      -0.01670668      -0.00196216
H        2.31990254       1.81763877      -0.10888627       0.03996925       0.08187739       0.00235196       0.02429080      -0.24503445       0.04593834
F       -0.64688278       0.05688021      -0.19538791      -0.00841798       0.02529520       0.01418979       1.15775288      -0.09243495       0.21595692
Cl       3.38863925      -0.32595319       0.86388976      -0.01245903      -0.00255735       0.04365061       0.60935087      -0.13421993       0.26682449
H        0.97961116      -0.50601793       0.94303760      -0.03399561      -0.03795441       0.02790681       0.57595621      -0.00901025       0.09402943
N        1.42674064      -0.68245793      -1.18816147      -0.01017701       0.02772425       0.02493369      -0.01154823       0.07925476       0.06597198
H        0.49991726      -0.63410034      -1.61514311       0.04259660       0.04550663      -0.01391700       0.18524017      -0.17638775      -0.41345880
H        1.65074522      -1.64993059      -1.00524779      -0.02680667      -0.02388712      -0.06095523       0.02404247       0.08045687       0.11508709
C        0.67939202       2.06319882       1.27723604       0.01240730      -0.02627344      -0.01206222      -0.00308008       0.03973949      -0.00108345
H       -0.34650214       1.70391180       1.34866842       0.01325849      -0.01877102      -0.05353019      -0.01607649       0.08504145       0.07977908