13
Properties=species:S:1:pos:R:3:mp2_forces:R:3:forces:R:3 R1=CN R2=H R3=NO2 R4=CN lg=Br nu=Cl rxn-id=1242 mp2_energy=-95238.53362872705 energy=-95238.53361651179 free_energy=-95238.53361651179 pbc="F F F"
C        0.49206452      -0.07690033      -0.08061327      -0.00718092      -0.00807586       0.03835093      -0.00711878      -0.00807107       0.03834241
C        0.89514114       1.39386407      -0.05593713       0.01184866      -0.00123751      -0.00456453       0.01186048      -0.00122999      -0.00450864
H        2.00556841       1.34502104       0.02768151      -0.01136691      -0.01766327      -0.00160154      -0.01137085      -0.01766524      -0.00160710
Br      -1.46061574      -0.27927534       0.07577054       0.07812438       0.03030026      -0.01663663       0.07810007       0.03029185      -0.01662069
Cl       3.54730844      -0.16393153       0.50344676      -0.00873489       0.09397548       0.02647295      -0.00873996       0.09397541       0.02647205
H        0.95190959      -0.55743311       0.78315849      -0.01877038      -0.01894432      -0.02822534      -0.01878880      -0.01894011      -0.02822890
C        0.92648272      -0.70676564      -1.31732755      -0.00809673      -0.07344487      -0.04138614      -0.00807230      -0.07345094      -0.04140053
N        1.19446534      -1.22043408      -2.34025479      -0.05581993       0.03775326       0.04038070      -0.05585934       0.03776247       0.04038806
N        0.40973590       2.04264269       1.21503435       0.00455174      -0.00099533      -0.03015925       0.00462065      -0.00117675      -0.03009984
O       -0.06149627       3.17401432       1.13631203       0.05156723      -0.00537340       0.02430179       0.05151100      -0.00529971       0.02428217
O        0.56648997       1.39445617       2.24129439      -0.04207339      -0.02695017      -0.01065100      -0.04207943      -0.02687458      -0.01069790
C        0.44270786       2.14877733      -1.21232132      -0.00807970       0.02989209      -0.05019103      -0.00807312       0.02990980      -0.05023702
N        0.11255495       2.73578701      -2.17567281       0.01403085      -0.03923636       0.05390911       0.01401036      -0.03923114       0.05391592
13
Properties=species:S:1:pos:R:3:mp2_forces:R:3:forces:R:3 R1=CN R2=H R3=NO2 R4=CN lg=Br nu=Cl rxn-id=1242 mp2_energy=-95238.53362872705 energy=-95238.52369986613 free_energy=-95238.53361651179 pbc="F F F"
C        0.50016581      -0.07234163      -0.09775421      -0.00718092      -0.00807586       0.03835093       0.00596375      -0.00622409       0.00006243
C        0.90394920       1.39790852      -0.07533910       0.01184866      -0.00123751      -0.00456453      -0.00307514      -0.00745412      -0.00111624
H        2.01256538       1.36131134      -0.01292649      -0.01136691      -0.01766327      -0.00160154      -0.00107430      -0.01161683       0.00326122
Br      -1.45313390      -0.23660932       0.04414479       0.07812438       0.03030026      -0.01663663      -0.00469363      -0.00325506       0.00893420
Cl       3.51209480      -0.15140537       0.63973167      -0.00873489       0.09397548       0.02647295       0.00992477       0.04979223       0.01850866
H        0.95065240      -0.55350226       0.77053808      -0.01877038      -0.01894432      -0.02822534      -0.00151921      -0.00764442      -0.00981154
C        0.93511581      -0.70811080      -1.33010505      -0.00809673      -0.07344487      -0.04138614      -0.01465454      -0.00289578      -0.00643900
N        1.19887722      -1.22444949      -2.35168037      -0.05581993       0.03775326       0.04038070      -0.01547797      -0.00094572      -0.00635445
N        0.44535515       2.03072213       1.21494865       0.00455174      -0.00099533      -0.03015925       0.00266894      -0.00533369      -0.00146044
O        0.00342875       3.17548487       1.16524992       0.05156723      -0.00537340       0.02430179       0.02915728       0.00480623      -0.00213271
O        0.58774809       1.35864558       2.22724742      -0.04207339      -0.02695017      -0.01065100      -0.01943970      -0.01147096      -0.00302312
C        0.40742162       2.14483862      -1.21919115      -0.00807970       0.02989209      -0.05019103       0.00434222      -0.00098272      -0.00044621
N        0.01807650       2.70733039      -2.17429297       0.01403085      -0.03923636       0.05390911       0.00787752       0.00322494       0.00001719
13
Properties=species:S:1:pos:R:3:mp2_forces:R:3:forces:R:3 R1=CN R2=H R3=NO2 R4=CN lg=Br nu=Cl rxn-id=1242 mp2_energy=-95238.53362872705 energy=-95238.52341598582 free_energy=-95238.53361651179 pbc="F F F"
C        0.49948530      -0.07165247      -0.09800270      -0.00718092      -0.00807586       0.03835093       0.01177422      -0.00691933       0.00189087
C        0.90434214       1.39850632      -0.07530089       0.01184866      -0.00123751      -0.00456453      -0.00463649      -0.00902901      -0.00068030
H        2.01295796       1.36128159      -0.01265357      -0.01136691      -0.01766327      -0.00160154      -0.00185637      -0.01141507       0.00320647
Br      -1.45364196      -0.23557671       0.04466947       0.07812438       0.03030026      -0.01663663      -0.00449598      -0.00292900       0.00781113
Cl       3.51558195      -0.15460695       0.63935696      -0.00873489       0.09397548       0.02647295       0.00312657       0.05206048       0.01751134
H        0.94976738      -0.55311007       0.77052178      -0.01877038      -0.01894432      -0.02822534      -0.00062835      -0.00683286      -0.01157573
C        0.93486536      -0.70751371      -1.33019650      -0.00809673      -0.07344487      -0.04138614      -0.01438912      -0.00349288      -0.00523566
N        1.20005856      -1.22415696      -2.35125143      -0.05581993       0.03775326       0.04038070      -0.01684618      -0.00048388      -0.00639999
N        0.44488060       2.03113488       1.21490990       0.00455174      -0.00099533      -0.03015925       0.00333126      -0.00635245      -0.00163375
O        0.00096398       3.17516705       1.16565486       0.05156723      -0.00537340       0.02430179       0.03015101       0.00390332      -0.00333405
O        0.58824375       1.35886389       2.22696323      -0.04207339      -0.02695017      -0.01065100      -0.01887960      -0.01071299      -0.00213666
C        0.40771655       2.14520807      -1.21933937      -0.00807970       0.02989209      -0.05019103       0.00418748      -0.00195839      -0.00011300
N        0.01709527       2.70627767      -2.17476054       0.01403085      -0.03923636       0.05390911       0.00916155       0.00416206       0.00068933
13
Properties=species:S:1:pos:R:3:mp2_forces:R:3:forces:R:3 R1=CN R2=H R3=NO2 R4=CN lg=Br nu=Cl rxn-id=1242 mp2_energy=-95238.53362872705 energy=-95238.52046427535 free_energy=-95238.53361651179 pbc="F F F"
C        0.50535700      -0.06815741      -0.09111347      -0.00718092      -0.00807586       0.03835093       0.00605071      -0.00705125       0.00191566
C        0.90634202       1.40317349      -0.06536965       0.01184866      -0.00123751      -0.00456453      -0.00915121      -0.01177710      -0.00378921
H        2.01429758       1.37450370       0.00307609      -0.01136691      -0.01766327      -0.00160154      -0.00377281      -0.03258937      -0.00192414
Br      -1.45135549      -0.22451922       0.03193020       0.07812438       0.03030026      -0.01663663      -0.00964282      -0.01160784       0.01289665
Cl       3.52347549      -0.16386067       0.56906998      -0.00873489       0.09397548       0.02647295       0.00744875       0.05600527       0.02907797
H        0.94409715      -0.55080042       0.78246781      -0.01877038      -0.01894432      -0.02822534       0.00075835      -0.00224326      -0.01683702
C        0.94687673      -0.70877057      -1.31836309      -0.00809673      -0.07344487      -0.04138614      -0.02058452      -0.00303283      -0.00674460
N        1.19939910      -1.23396056      -2.33832675      -0.05581993       0.03775326       0.04038070      -0.00803744       0.00289612      -0.00667473
N        0.43243580       2.03194396       1.22087096       0.00455174      -0.00099533      -0.03015925       0.00646424      -0.00429482      -0.00369854
O       -0.00458375       3.17817435       1.17015910       0.05156723      -0.00537340       0.02430179       0.02953443       0.00557283      -0.00402444
O        0.55962034       1.35461260       2.23218341      -0.04207339      -0.02695017      -0.01065100      -0.01167731      -0.00571280      -0.00210633
C        0.41511190       2.14366770      -1.21581194      -0.00807970       0.02989209      -0.05019103       0.00500694       0.00223152      -0.00050335
N        0.03124298       2.69381567      -2.18020143       0.01403085      -0.03923636       0.05390911       0.00760271       0.01160354       0.00241208
13
Properties=species:S:1:pos:R:3:mp2_forces:R:3:forces:R:3 R1=CN R2=H R3=NO2 R4=CN lg=Br nu=Cl rxn-id=1242 mp2_energy=-95238.53362872705 energy=-95238.51074736516 free_energy=-95238.53361651179 pbc="F F F"
C        0.51580611      -0.05894276      -0.08863520      -0.00718092      -0.00807586       0.03835093      -0.00561820      -0.01093288       0.00258352
C        0.90941283       1.41495589      -0.06144727       0.01184866      -0.00123751      -0.00456453      -0.01204811      -0.01504707      -0.00713154
H        2.01488559       1.40501338       0.00296569      -0.01136691      -0.01766327      -0.00160154      -0.00267625      -0.06312023      -0.00377912
Br      -1.44434281      -0.20492379       0.00744229       0.07812438       0.03030026      -0.01663663      -0.01940850      -0.02708462       0.02490861
Cl       3.50568073      -0.21610165       0.53563760      -0.00873489       0.09397548       0.02647295       0.02576852       0.06197912       0.03805468
H        0.94023446      -0.53977422       0.79211909      -0.01877038      -0.01894432      -0.02822534       0.00469513      -0.00018493      -0.01672155
C        0.96909477      -0.70693321      -1.30700984      -0.00809673      -0.07344487      -0.04138614      -0.03035943       0.00109918      -0.01340227
N        1.21139022      -1.24145385      -2.32464920      -0.05581993       0.03775326       0.04038070       0.00083993       0.00573304      -0.01048898
N        0.42979835       2.03249632       1.22794683       0.00455174      -0.00099533      -0.03015925       0.00491161       0.00200611      -0.00643903
O       -0.02527571       3.17121855       1.18138998       0.05156723      -0.00537340       0.02430179       0.02791491       0.01230568      -0.00746800
O        0.57046518       1.35424578       2.23732728      -0.04207339      -0.02695017      -0.01065100      -0.01187282       0.00039641      -0.00467439
C        0.40803781       2.14562416      -1.21460952      -0.00807970       0.02989209      -0.05019103       0.00795974       0.00693694      -0.00156688
N        0.01712930       2.67439799      -2.18790652       0.01403085      -0.03923636       0.05390911       0.00989348       0.02591324       0.00612495
13
Properties=species:S:1:pos:R:3:mp2_forces:R:3:forces:R:3 R1=CN R2=H R3=NO2 R4=CN lg=Br nu=Cl rxn-id=1242 mp2_energy=-95238.53362872705 energy=-95238.47667338817 free_energy=-95238.53361651179 pbc="F F F"
C        0.54460550      -0.04955849      -0.08105406      -0.00718092      -0.00807586       0.03835093      -0.04963312       0.00045661      -0.00757087
C        0.92111050       1.43161763      -0.05382808       0.01184866      -0.00123751      -0.00456453      -0.03539212      -0.01227027      -0.01357475
H        2.02068953       1.49466074      -0.00171737      -0.01136691      -0.01766327      -0.00160154      -0.01777366      -0.19911717       0.00670279
Br      -1.42710878      -0.16830578      -0.03415020       0.07812438       0.03030026      -0.01663663      -0.02194639      -0.06208246       0.04470357
Cl       3.45411370      -0.29902454       0.48368993      -0.00873489       0.09397548       0.02647295       0.11719552       0.05152843       0.06202203
H        0.93438057      -0.53291595       0.81373307      -0.01877038      -0.01894432      -0.02822534       0.02750188       0.03334516      -0.03110136
C        1.01406302      -0.71004233      -1.28664975      -0.00809673      -0.07344487      -0.04138614      -0.07138198       0.02284284      -0.02823971
N        1.21201831      -1.25319648      -2.31006480      -0.05581993       0.03775326       0.04038070       0.03581115       0.01032835      -0.00086340
N        0.42586664       2.02838722       1.23737333       0.00455174      -0.00099533      -0.03015925      -0.00075170       0.02057542      -0.00354541
O       -0.05571583       3.15504617       1.19263147       0.05156723      -0.00537340       0.02430179       0.02164833       0.03069399      -0.00109207
O        0.58334789       1.35133471       2.24596720      -0.04207339      -0.02695017      -0.01065100      -0.01317983       0.01255494      -0.00994444
C        0.39609957       2.13808524      -1.21158138      -0.00807970       0.02989209      -0.05019103       0.00568756       0.04460634      -0.00742262
N       -0.00115379       2.64373447      -2.19377816       0.01403085      -0.03923636       0.05390911       0.00221437       0.04653780      -0.01007377
13
Properties=species:S:1:pos:R:3:mp2_forces:R:3:forces:R:3 R1=CN R2=H R3=NO2 R4=CN lg=Br nu=Cl rxn-id=1242 mp2_energy=-95238.53362872705 energy=-95238.40752497427 free_energy=-95238.53361651179 pbc="F F F"
C        0.57923366      -0.05166962      -0.07382365      -0.00718092      -0.00807586       0.03835093      -0.22139706       0.03315023      -0.03303646
C        0.94278692       1.43996021      -0.04700377       0.01184866      -0.00123751      -0.00456453      -0.10886113      -0.01602039      -0.01432826
H        2.03153435       1.60213650      -0.00349025      -0.01136691      -0.01766327      -0.00160154      -0.03802098      -0.36713514       0.00455476
Br      -1.41044669      -0.13326898      -0.06073432       0.07812438       0.03030026      -0.01663663       0.00851609      -0.09120604       0.03913371
Cl       3.39268282      -0.33065304       0.45118917      -0.00873489       0.09397548       0.02647295       0.26819817       0.01344611       0.08955135
H        0.91439928      -0.55019294       0.83887556      -0.01877038      -0.01894432      -0.02822534       0.10939429       0.10677566      -0.10795149
C        1.04609435      -0.71870614      -1.28022828      -0.00809673      -0.07344487      -0.04138614      -0.09142636       0.05171747       0.01727147
N        1.19697458      -1.26551967      -2.31125542      -0.05581993       0.03775326       0.04038070       0.06248157       0.02800632       0.03318991
N        0.42706629       2.01907140       1.24388148       0.00455174      -0.00099533      -0.03015925      -0.00305570       0.03374243      -0.00729698
O       -0.06585933       3.13938975       1.19563326       0.05156723      -0.00537340       0.02430179       0.01458449       0.04637680       0.01388724
O        0.58828927       1.34170262       2.25125995      -0.04207339      -0.02695017      -0.01065100      -0.01724668       0.02493333      -0.00663410
C        0.38676107       2.12064760      -1.20781039      -0.00807970       0.02989209      -0.05019103       0.02782575       0.08708656      -0.01207667
N       -0.00719975       2.61692491      -2.19592215       0.01403085      -0.03923636       0.05390911      -0.01099245       0.04912666      -0.01626449
13
Properties=species:S:1:pos:R:3:mp2_forces:R:3:forces:R:3 R1=CN R2=H R3=NO2 R4=CN lg=Br nu=Cl rxn-id=1242 mp2_energy=-95238.53362872705 energy=-95238.26745970883 free_energy=-95238.53361651179 pbc="F F F"
C        0.63881429      -0.06070562      -0.06553062      -0.00718092      -0.00807586       0.03835093      -0.91207052       0.03636575      -0.07503839
C        0.97120214       1.44136743      -0.04162777       0.01184866      -0.00123751      -0.00456453      -0.18144167      -0.02924662      -0.00916486
H        2.04121103       1.70314105      -0.00568521      -0.01136691      -0.01766327      -0.00160154      -0.01660577      -0.44609535       0.00852754
Br      -1.42018202      -0.10803103      -0.07392161       0.07812438       0.03030026      -0.01663663       0.33461175      -0.08666219       0.01533602
Cl       3.31618318      -0.33099887       0.42452016      -0.00873489       0.09397548       0.02647295       0.49120079      -0.04106883       0.12146058
H        0.89092590      -0.57906959       0.86311035      -0.01877038      -0.01894432      -0.02822534       0.24394944       0.16079773      -0.15781863
C        1.07441114      -0.73539818      -1.27851688      -0.00809673      -0.07344487      -0.04138614      -0.05807446       0.09102116       0.05176626
N        1.17948859      -1.27392760      -2.32157019      -0.05581993       0.03775326       0.04038070       0.07443238       0.03710815       0.07894709
N        0.42820320       2.01025769       1.24501586       0.00455174      -0.00099533      -0.03015925       0.01482254       0.04112536      -0.00818661
O       -0.06801590       3.12856816       1.19316132       0.05156723      -0.00537340       0.02430179       0.01050139       0.04542622       0.01175528
O        0.59151515       1.33655529       2.25312037      -0.04207339      -0.02695017      -0.01065100      -0.02356107       0.01981172       0.00270718
C        0.38204358       2.09376454      -1.20369060      -0.00807970       0.02989209      -0.05019103       0.05199515       0.14103214      -0.00910839
N       -0.00348345       2.60429933      -2.18781397       0.01403085      -0.03923636       0.05390911      -0.02975994       0.03038478      -0.03118307
13
Properties=species:S:1:pos:R:3:mp2_forces:R:3:forces:R:3 R1=CN R2=H R3=NO2 R4=CN lg=Br nu=Cl rxn-id=1242 mp2_energy=-95238.53362872705 energy=-95238.06410102722 free_energy=-95238.53361651179 pbc="F F F"
C        0.72826033      -0.06388400      -0.05857036      -0.00718092      -0.00807586       0.03835093      -1.60971163       0.03800447      -0.12956780
C        0.98882381       1.44475540      -0.04047950       0.01184866      -0.00123751      -0.00456453      -0.12607708      -0.04142178       0.00081350
H        2.04322461       1.74738729      -0.00669667      -0.01136691      -0.01766327      -0.00160154       0.02651143      -0.34525400       0.00757143
Br      -1.45231105      -0.10075428      -0.07426687       0.07812438       0.03030026      -0.01663663       0.55766710      -0.04680093      -0.00421911
Cl       3.26919235      -0.32673869       0.41356376      -0.00873489       0.09397548       0.02647295       0.53291689      -0.05561796       0.11497550
H        0.86634358      -0.59427869       0.87849444      -0.01877038      -0.01894432      -0.02822534       0.41171689       0.12353677      -0.10587042
C        1.08038664      -0.74417150      -1.28338110      -0.00809673      -0.07344487      -0.04138614       0.10319646       0.07386106       0.06681314
N        1.17062390      -1.27808660      -2.33037970      -0.05581993       0.03775326       0.04038070       0.05448901       0.02594787       0.06584298
N        0.42672552       2.00577390       1.24582264       0.00455174      -0.00099533      -0.03015925       0.02950087       0.03696760      -0.01192471
O       -0.06839688       3.12429126       1.19140843       0.05156723      -0.00537340       0.02430179       0.00849148       0.03379572       0.00876834
O        0.59266791       1.33363647       2.25316413      -0.04207339      -0.02695017      -0.01065100      -0.02447986       0.01528378       0.00463270
C        0.37675025       2.08028596      -1.20286575      -0.00807970       0.02989209      -0.05019103       0.06714943       0.13155733       0.00380314
N        0.00002586       2.60160608      -2.18524225       0.01403085      -0.03923636       0.05390911      -0.03137097       0.01014007      -0.02163869
13
Properties=species:S:1:pos:R:3:mp2_forces:R:3:forces:R:3 R1=CN R2=H R3=NO2 R4=CN lg=Br nu=Cl rxn-id=1242 mp2_energy=-95238.53362872705 energy=-95237.90104826175 free_energy=-95238.53361651179 pbc="F F F"
C        0.80380001      -0.06546556      -0.05253210      -0.00718092      -0.00807586       0.03835093      -1.44349851       0.04671931      -0.13870433
C        0.99473831       1.44681500      -0.04046109       0.01184866      -0.00123751      -0.00456453      -0.05117458      -0.02247038       0.00729664
H        2.04205831       1.76370735      -0.00713324      -0.01136691      -0.01766327      -0.00160154       0.03902484      -0.22592770       0.00722144
Br      -1.47868257      -0.09861631      -0.07408188       0.07812438       0.03030026      -0.01663663       0.41720877      -0.02335585      -0.00559527
Cl       3.24436060      -0.32400438       0.40822110      -0.00873489       0.09397548       0.02647295       0.41063006      -0.04336982       0.08389078
H        0.84692750      -0.59993405       0.88344349      -0.01877038      -0.01894432      -0.02822534       0.39408556       0.05989347      -0.02606684
C        1.07561756      -0.74767668      -1.28641721      -0.00809673      -0.07344487      -0.04138614       0.16107274       0.03698370       0.04526326
N        1.16803201      -1.27960441      -2.33371369      -0.05581993       0.03775326       0.04038070       0.03504352       0.00915451       0.03370633
N        0.42536923       2.00391698       1.24634041       0.00455174      -0.00099533      -0.03015925       0.02445758       0.02660547      -0.00925179
O       -0.06853844       3.12277112       1.19096312       0.05156723      -0.00537340       0.02430179       0.00743196       0.02475044       0.00594747
O        0.59357107       1.33272839       2.25304901      -0.04207339      -0.02695017      -0.01065100      -0.02068213       0.00972865       0.00340428
C        0.37369501       2.07406416      -1.20292281      -0.00807970       0.02989209      -0.05019103       0.04958086       0.09719959       0.00704787
N        0.00136823       2.60112100      -2.18418391       0.01403085      -0.03923636       0.05390911      -0.02318067       0.00408860      -0.01415984
13
Properties=species:S:1:pos:R:3:mp2_forces:R:3:forces:R:3 R1=CN R2=H R3=NO2 R4=CN lg=Br nu=Cl rxn-id=1242 mp2_energy=-95238.53362872705 energy=-95237.78767217699 free_energy=-95238.53361651179 pbc="F F F"
C        0.87892976      -0.06768043      -0.04534380      -0.00718092      -0.00807586       0.03835093      -0.83529923       0.03950899      -0.09482987
C        0.99734653       1.44808914      -0.04079764       0.01184866      -0.00123751      -0.00456453      -0.01291861      -0.00161921       0.00661672
H        2.04008519       1.77539511      -0.00759446      -0.01136691      -0.01766327      -0.00160154       0.02825476      -0.11247938       0.00513087
Br      -1.50062458      -0.09750906      -0.07381149       0.07812438       0.03030026      -0.01663663       0.20498104      -0.00900886      -0.00387314
Cl       3.22322973      -0.32162684       0.40392111      -0.00873489       0.09397548       0.02647295       0.22747053      -0.02227487       0.04445014
H        0.82633984      -0.60288012       0.88476134      -0.01877038      -0.01894432      -0.02822534       0.23758511       0.01243273       0.01769805
C        1.06731865      -0.74970774      -1.28876032      -0.00809673      -0.07344487      -0.04138614       0.11417610       0.00732511       0.01715552
N        1.16622225      -1.28035382      -2.33565497      -0.05581993       0.03775326       0.04038070       0.01834381      -0.00286927       0.00798981
N        0.42411684       2.00246052       1.24680476       0.00455174      -0.00099533      -0.03015925       0.01305124       0.01432198      -0.00444563
O       -0.06863966       3.12161766       1.19066983       0.05156723      -0.00537340       0.02430179       0.00628722       0.01498313       0.00364581
O        0.59439313       1.33206446       2.25297938      -0.04207339      -0.02695017      -0.01065100      -0.01391611       0.00424915       0.00211870
C        0.37115320       2.06902816      -1.20321633      -0.00807970       0.02989209      -0.05019103       0.02533023       0.05322248       0.00554937
N        0.00244597       2.60092556      -2.18338621       0.01403085      -0.03923636       0.05390911      -0.01334607       0.00220801      -0.00720636
13
Properties=species:S:1:pos:R:3:mp2_forces:R:3:forces:R:3 R1=CN R2=H R3=NO2 R4=CN lg=Br nu=Cl rxn-id=1242 mp2_energy=-95238.53362872705 energy=-95237.74390772382 free_energy=-95238.53361651179 pbc="F F F"
C        0.95383282      -0.07085476      -0.03686796      -0.00718092      -0.00807586       0.03835093      -0.06655087       0.00754587      -0.00837121
C        0.99836054       1.44837772      -0.04134396       0.01184866      -0.00123751      -0.00456453      -0.00284044       0.00168514       0.00076899
H        2.03762800       1.78523000      -0.00817267      -0.01136691      -0.01766327      -0.00160154       0.00295949      -0.01168506      -0.00034419
Br      -1.51946205      -0.09690992      -0.07353136       0.07812438       0.03030026      -0.01663663       0.01068259      -0.00265156      -0.00141963
Cl       3.20324118      -0.31942773       0.40005177      -0.00873489       0.09397548       0.02647295       0.02353785       0.00015503       0.00494791
H        0.80505873      -0.60370484       0.88310737      -0.01877038      -0.01894432      -0.02822534       0.02024765       0.00255638       0.00255297
C        1.05716687      -0.75059460      -1.29035396      -0.00809673      -0.07344487      -0.04138614       0.00912098      -0.00287672      -0.00065920
N        1.16465589      -1.28052936      -2.33663763      -0.05581993       0.03775326       0.04038070       0.00256460      -0.00472626      -0.00208687
N        0.42296647       2.00110437       1.24719849       0.00455174      -0.00099533      -0.03015925       0.00095099       0.00083598      -0.00014727
O       -0.06870462       3.12055597       1.19040551       0.05156723      -0.00537340       0.02430179       0.00561345       0.00448561       0.00126535
O        0.59521441       1.33145856       2.25296895      -0.04207339      -0.02695017      -0.01065100      -0.00543420      -0.00159802       0.00189338
C        0.36890290       2.06431560      -1.20361497      -0.00807970       0.02989209      -0.05019103       0.00174073       0.00489226       0.00133189
N        0.00345569       2.60080159      -2.18263836       0.01403085      -0.03923636       0.05390911      -0.00259282       0.00138134       0.00026788
13
Properties=species:S:1:pos:R:3:mp2_forces:R:3:forces:R:3 R1=CN R2=H R3=NO2 R4=CN lg=Br nu=Cl rxn-id=1242 mp2_energy=-95238.53362872705 energy=-95237.77402176498 free_energy=-95238.53361651179 pbc="F F F"
C        1.02722662      -0.07540364      -0.02705842      -0.00718092      -0.00807586       0.03835093       0.69664276      -0.03924542       0.09244764
C        0.99915179       1.44709980      -0.04191126       0.01184866      -0.00123751      -0.00456453       0.00526313      -0.01145484      -0.00545616
H        2.03491896       1.79373825      -0.00906182      -0.01136691      -0.01766327      -0.00160154      -0.02528263       0.07718151      -0.00912338
Br      -1.53758412      -0.09700459      -0.07324713       0.07812438       0.03030026      -0.01663663      -0.17905823      -0.00310371       0.00124055
Cl       3.18021632      -0.31730939       0.39599506      -0.00873489       0.09397548       0.02647295      -0.21407443       0.02204966      -0.03680088
H        0.78644266      -0.60155436       0.87775936      -0.01877038      -0.01894432      -0.02822534      -0.17285200       0.02351649      -0.05148042
C        1.04773140      -0.75002369      -1.29050061      -0.00809673      -0.07344487      -0.04138614      -0.08989213       0.00294763      -0.00159622
N        1.16305454      -1.27972510      -2.33619354      -0.05581993       0.03775326       0.04038070      -0.01369015       0.00279334       0.00098255
N        0.42212788       1.99966925       1.24744677       0.00455174      -0.00099533      -0.03015925      -0.00789137      -0.01379277       0.00263109
O       -0.06864805       3.11941026       1.19003472       0.05156723      -0.00537340       0.02430179       0.00613034      -0.00723511      -0.00230101
O        0.59605560       1.33079877       2.25305024      -0.04207339      -0.02695017      -0.01065100       0.00339983      -0.00813220       0.00263715
C        0.36711650       2.05958595      -1.20398389      -0.00807970       0.02989209      -0.05019103      -0.01726831      -0.04438979      -0.00246992
N        0.00450673       2.60054109      -2.18175827       0.01403085      -0.03923636       0.05390911       0.00857319      -0.00113480       0.00928901
13
Properties=species:S:1:pos:R:3:mp2_forces:R:3:forces:R:3 R1=CN R2=H R3=NO2 R4=CN lg=Br nu=Cl rxn-id=1242 mp2_energy=-95238.53362872705 energy=-95237.86322273324 free_energy=-95238.53361651179 pbc="F F F"
C        1.09377221      -0.08060073      -0.01736152      -0.00718092      -0.00807586       0.03835093       1.28677119      -0.09688240       0.18643933
C        1.00086263       1.44519533      -0.04228153       0.01184866      -0.00123751      -0.00456453       0.03059624      -0.03671743      -0.00764859
H        2.03255450       1.80176666      -0.01004592      -0.01136691      -0.01766327      -0.00160154      -0.04546289       0.15116747      -0.01952338
Br      -1.55527915      -0.09726388      -0.07298904       0.07812438       0.03030026      -0.01663663      -0.34997608      -0.00707420       0.00333232