14
Properties=species:S:1:pos:R:3:mp2_forces:R:3:forces:R:3 R1=NH2 R2=CH3 R3=H R4=H lg=F nu=Cl rxn-id=2685 mp2_energy=-19942.284450410996 energy=-19942.284451607753 free_energy=-19942.284451607753 pbc="F F F"
C        0.58127940      -0.16814320      -0.01668473       0.00402267      -0.00604896      -0.01342448       0.00389873      -0.00604547      -0.01344755
C        1.14227725       1.23318791       0.01453648      -0.01533618      -0.01676734       0.00083820      -0.01534549      -0.01676546       0.00083562
H        2.21676103       1.19841065       0.22027298      -0.03097203      -0.00677828      -0.00324263      -0.03093693      -0.00678167      -0.00323497
F       -0.83932806      -0.04607731      -0.26417041       0.01177353      -0.00393260       0.00905027       0.01182874      -0.00393003       0.00907362
Cl       4.60718146       0.71209972       1.18984903      -0.03021822       0.02078794       0.05447993      -0.03021899       0.02078838       0.05447943
H        0.64405804       1.80606807       0.80069256       0.01796324      -0.01354966      -0.02610453       0.01795793      -0.01354402      -0.02609166
H        0.95334837       1.73015144      -0.94231924       0.00207871      -0.00075618      -0.00445459       0.00207686      -0.00075054      -0.00446665
N        1.17013278      -0.93453215      -1.05848410      -0.02908664      -0.06089979       0.05899276      -0.02903255      -0.06092625       0.05898156
H        1.15765299      -0.42750736      -1.93192675      -0.01863113       0.04451990      -0.05768696      -0.01864105       0.04453392      -0.05769771
H        0.66975775      -1.80894335      -1.16790811       0.04092974       0.04417736      -0.01086266       0.04092033       0.04417858      -0.01085933
C        0.72413970      -0.88425810       1.31207426       0.00694255      -0.01681647      -0.00442736       0.00694326      -0.01682220      -0.00441578
H        0.64207542      -1.96613109       1.17639435      -0.06300352      -0.00950445       0.01080994      -0.06300296      -0.00951058       0.01080596
H        1.70347838      -0.66118503       1.73940349       0.03709831      -0.03794801      -0.05142149       0.03711572      -0.03794291      -0.05141558
H       -0.06823950      -0.55771391       1.98827446       0.06643895       0.06351654       0.03745359       0.06643641       0.06351825       0.03745304
14
Properties=species:S:1:pos:R:3:mp2_forces:R:3:forces:R:3 R1=NH2 R2=CH3 R3=H R4=H lg=F nu=Cl rxn-id=2685 mp2_energy=-19942.284450410996 energy=-19942.374034133016 free_energy=-19942.284451607753 pbc="F F F"
C        0.58375482      -0.15950942      -0.04400749       0.00402267      -0.00604896      -0.01342448      -0.00003141      -0.00036646      -0.00024208
C        1.05422014       1.27411897      -0.04930141      -0.01533618      -0.01676734       0.00083820       0.00220125      -0.00109477      -0.00028300
H        2.12685572       1.28849218       0.16013712      -0.03097203      -0.00677828      -0.00324263       0.00226676      -0.00254829      -0.00063272
F       -0.85284593      -0.13169058      -0.18998327       0.01177353      -0.00393260       0.00905027      -0.00020360       0.00197913       0.00176465
Cl       4.34179142       0.36780706       1.68414147      -0.03021822       0.02078794       0.05447993      -0.00251723       0.00983559       0.00640565
H        0.52987461       1.83841204       0.72854163       0.01796324      -0.01354966      -0.02610453       0.00344509      -0.00048725       0.00016674
H        0.84954347       1.74699499      -1.01517256       0.00207871      -0.00075618      -0.00445459       0.00238641      -0.00057794      -0.00006134
N        1.16121418      -0.87883356      -1.12466277      -0.02908664      -0.06089979       0.05899276      -0.00273333      -0.00092785      -0.00129835
H        0.94243584      -0.43660044      -2.00734707      -0.01863113       0.04451990      -0.05768696      -0.00316996      -0.00005918      -0.00079662
H        0.83698792      -1.83652636      -1.13209266       0.04092974       0.04417736      -0.01086266      -0.00483958      -0.00026464      -0.00141853
C        0.87909399      -0.84211969       1.26833609       0.00694255      -0.01681647      -0.00442736       0.00067733      -0.00128358      -0.00086277
H        0.54777176      -1.88506136       1.24602323      -0.06300352      -0.00950445       0.01080994      -0.00002967      -0.00105071      -0.00102456
H        1.95470315      -0.79077555       1.45712129       0.03709831      -0.03794801      -0.05142149       0.00079468      -0.00188806      -0.00156369
H        0.34917392      -0.32928199       2.07827070       0.06643895       0.06351654       0.03745359       0.00175326      -0.00126599      -0.00015336
14
Properties=species:S:1:pos:R:3:mp2_forces:R:3:forces:R:3 R1=NH2 R2=CH3 R3=H R4=H lg=F nu=Cl rxn-id=2685 mp2_energy=-19942.284450410996 energy=-19942.37338660346 free_energy=-19942.284451607753 pbc="F F F"
C        0.58386751      -0.15854191      -0.04350494       0.00402267      -0.00604896      -0.01342448      -0.00007175      -0.00044928      -0.00030698
C        1.04881097       1.27689205      -0.04889199      -0.01533618      -0.01676734       0.00083820       0.00253491      -0.00128600      -0.00035672
H        2.12130306       1.29488541       0.16128121      -0.03097203      -0.00677828      -0.00324263       0.00263308      -0.00298710      -0.00081657
F       -0.85237190      -0.13651285      -0.19382577       0.01177353      -0.00393260       0.00905027      -0.00030018       0.00228359       0.00207065
Cl       4.34703563       0.34304537       1.67061472      -0.03021822       0.02078794       0.05447993      -0.00259876       0.01150392       0.00781468
H        0.52150863       1.83973545       0.72788028       0.01796324      -0.01354966      -0.02610453       0.00402447      -0.00058676       0.00021219
H        0.84354459       1.74842786      -1.01531646       0.00207871      -0.00075618      -0.00445459       0.00269325      -0.00066206      -0.00007585
N        1.16753273      -0.87646327      -1.12181110      -0.02908664      -0.06089979       0.05899276      -0.00325028      -0.00114121      -0.00155748
H        0.94893384      -0.43666599      -2.00567191      -0.01863113       0.04451990      -0.05768696      -0.00364949      -0.00004310      -0.00096109
H        0.84890356      -1.83593045      -1.12849619       0.04092974       0.04417736      -0.01086266      -0.00585668      -0.00034599      -0.00179208
C        0.87800031      -0.83889511       1.27024199       0.00694255      -0.01681647      -0.00442736       0.00080706      -0.00148144      -0.00101950
H        0.54844884      -1.88242416       1.24843032      -0.06300352      -0.00950445       0.01080994       0.00003444      -0.00122482      -0.00117113
H        1.95336487      -0.78599649       1.46043999       0.03709831      -0.03794801      -0.05142149       0.00094954      -0.00212380      -0.00184436
H        0.34569237      -0.32612964       2.07863412       0.06643895       0.06351654       0.03745359       0.00205037      -0.00145596      -0.00019577
14
Properties=species:S:1:pos:R:3:mp2_forces:R:3:forces:R:3 R1=NH2 R2=CH3 R3=H R4=H lg=F nu=Cl rxn-id=2685 mp2_energy=-19942.284450410996 energy=-19942.372130955515 free_energy=-19942.284451607753 pbc="F F F"
C        0.58421778      -0.15694600      -0.04252210       0.00402267      -0.00604896      -0.01342448      -0.00018438      -0.00061987      -0.00043804
C        1.04096092       1.28113010      -0.04748106      -0.01533618      -0.01676734       0.00083820       0.00296614      -0.00161990      -0.00052919
H        2.11298205       1.30445254       0.16495179      -0.03097203      -0.00677828      -0.00324263       0.00314281      -0.00367340      -0.00128798
F       -0.85127935      -0.14349822      -0.20058031       0.01177353      -0.00393260       0.00905027      -0.00049824       0.00267319       0.00254021
Cl       4.35410030       0.30646913       1.64432216      -0.03021822       0.02078794       0.05447993      -0.00216347       0.01407902       0.01042783
H        0.50834718       1.84179174       0.72706201       0.01796324      -0.01354966      -0.02610453       0.00492594      -0.00081492       0.00031545
H        0.83599622       1.75066455      -1.01497405       0.00207871      -0.00075618      -0.00445459       0.00293932      -0.00080216      -0.00011247
N        1.17806203      -0.87254155      -1.11691358      -0.02908664      -0.06089979       0.05899276      -0.00410501      -0.00154383      -0.00196456
H        0.95921000      -0.43713581      -2.00276340      -0.01863113       0.04451990      -0.05768696      -0.00412595       0.00008921      -0.00120822
H        0.86916343      -1.83499539      -1.12190920       0.04092974       0.04417736      -0.01086266      -0.00779305      -0.00045590      -0.00257219
C        0.87536446      -0.83426704       1.27340664       0.00694255      -0.01681647      -0.00442736       0.00100510      -0.00175111      -0.00126192
H        0.54796075      -1.87851620       1.25189625      -0.06300352      -0.00950445       0.01080994       0.00015556      -0.00146353      -0.00130905
H        1.95027331      -0.77961073       1.46625100       0.03709831      -0.03794801      -0.05142149       0.00119861      -0.00243117      -0.00232323
H        0.33921593      -0.32157083       2.07925814       0.06643895       0.06351654       0.03745359       0.00253664      -0.00166563      -0.00027663
14
Properties=species:S:1:pos:R:3:mp2_forces:R:3:forces:R:3 R1=NH2 R2=CH3 R3=H R4=H lg=F nu=Cl rxn-id=2685 mp2_energy=-19942.284450410996 energy=-19942.371138163307 free_energy=-19942.284451607753 pbc="F F F"
C        0.58469622      -0.15591349      -0.04149106       0.00402267      -0.00604896      -0.01342448      -0.00033698      -0.00078888      -0.00057488
C        1.03755757       1.28340281      -0.04485797      -0.01533618      -0.01676734       0.00083820       0.00305206      -0.00186079      -0.00076398
H        2.10882587       1.30908313       0.17126397      -0.03097203      -0.00677828      -0.00324263       0.00333296      -0.00406642      -0.00198293
F       -0.85004520      -0.14652330      -0.20652215       0.01177353      -0.00393260       0.00905027      -0.00070447       0.00274404       0.00285356
Cl       4.35718363       0.28975137       1.61681295      -0.03021822       0.02078794       0.05447993      -0.00102761       0.01543411       0.01292567
H        0.50032631       1.84294200       0.72721252       0.01796324      -0.01354966      -0.02610453       0.00547696      -0.00105589       0.00041388
H        0.83537642       1.75202376      -1.01338165       0.00207871      -0.00075618      -0.00445459       0.00261952      -0.00088781      -0.00017536
N        1.18586018      -0.87001109      -1.11290874      -0.02908664      -0.06089979       0.05899276      -0.00472709      -0.00191373      -0.00223072
H        0.96655595      -0.43807804      -2.00028356      -0.01863113       0.04451990      -0.05768696      -0.00401058       0.00033009      -0.00135806
H        0.88421195      -1.83458003      -1.11629050       0.04092974       0.04417736      -0.01086266      -0.00957087      -0.00050705      -0.00337054
C        0.87145346      -0.83239920       1.27582782       0.00694255      -0.01681647      -0.00442736       0.00117844      -0.00182167      -0.00142235
H        0.54420600      -1.87671219       1.25343938      -0.06300352      -0.00950445       0.01080994       0.00035820      -0.00153491      -0.00123656
H        1.94590002      -0.77789096       1.47147444       0.03709831      -0.03794801      -0.05142149       0.00142042      -0.00244981      -0.00271959
H        0.33246662      -0.31966848       2.07970882       0.06643895       0.06351654       0.03745359       0.00293905      -0.00162128      -0.00035816
14
Properties=species:S:1:pos:R:3:mp2_forces:R:3:forces:R:3 R1=NH2 R2=CH3 R3=H R4=H lg=F nu=Cl rxn-id=2685 mp2_energy=-19942.284450410996 energy=-19942.37172395531 free_energy=-19942.284451607753 pbc="F F F"
C        0.58387010      -0.15650199      -0.04296663       0.00402267      -0.00604896      -0.01342448      -0.00001959      -0.00053361      -0.00033754
C        1.03566877       1.28312883      -0.05011740      -0.01533618      -0.01676734       0.00083820       0.00345160      -0.00168569      -0.00035836
H        2.10833291       1.30995562       0.15885299      -0.03097203      -0.00677828      -0.00324263       0.00351061      -0.00393267      -0.00072717
F       -0.85179003      -0.14820849      -0.19971797       0.01177353      -0.00393260       0.00905027      -0.00025871       0.00311341       0.00269020
Cl       4.35873623       0.28362634       1.65557659      -0.03021822       0.02078794       0.05447993      -0.00405191       0.01522287       0.00932632
H        0.50374295       1.84255334       0.72570606       0.01796324      -0.01354966      -0.02610453       0.00525501      -0.00071291       0.00022529
H        0.82607282       1.75149189      -1.01722458       0.00207871      -0.00075618      -0.00445459       0.00392260      -0.00093028      -0.00007286
N        1.17931980      -0.87132416      -1.11695005      -0.02908664      -0.06089979       0.05899276      -0.00415106      -0.00134335      -0.00197234
H        0.96106248      -0.43604870      -2.00295898      -0.01863113       0.04451990      -0.05768696      -0.00503027      -0.00010451      -0.00119588
H        0.87147646      -1.83417531      -1.12238322       0.04092974       0.04417736      -0.01086266      -0.00720311      -0.00036666      -0.00204722
C        0.87854139      -0.83095605       1.27359336       0.00694255      -0.01681647      -0.00442736       0.00097725      -0.00201941      -0.00131445
H        0.55378251      -1.87607319       1.25415359      -0.06300352      -0.00950445       0.01080994      -0.00004014      -0.00168102      -0.00169021
H        1.95362951      -0.77372020       1.46510476       0.03709831      -0.03794801      -0.05142149       0.00113352      -0.00292351      -0.00228730
H        0.34212909      -0.31832165       2.07933574       0.06643895       0.06351654       0.03745359       0.00250420      -0.00210265      -0.00023848
14
Properties=species:S:1:pos:R:3:mp2_forces:R:3:forces:R:3 R1=NH2 R2=CH3 R3=H R4=H lg=F nu=Cl rxn-id=2685 mp2_energy=-19942.284450410996 energy=-19942.375708947395 free_energy=-19942.284451607753 pbc="F F F"
C        0.58422457      -0.16576437      -0.04610428       0.00402267      -0.00604896      -0.01342448      -0.00008254      -0.00014197      -0.00001519
C        1.09752848       1.25301685      -0.04798069      -0.01533618      -0.01676734       0.00083820      -0.00071449       0.00011477       0.00023491
H        2.16922530       1.23957858       0.16403674      -0.03097203      -0.00677828      -0.00324263      -0.00044868       0.00038091      -0.00089595
F       -0.85335016      -0.09297565      -0.16546118       0.01177353      -0.00393260       0.00905027      -0.00022707      -0.00081799      -0.00085032
Cl       4.29578705       0.55900707       1.75062006      -0.03021822       0.02078794       0.05447993       0.00113910      -0.00087210      -0.00122861
H        0.58988643       1.82914678       0.73315031       0.01796324      -0.01354966      -0.02610453      -0.00016874      -0.00052238       0.00113885
H        0.90591278       1.73504242      -1.01185322       0.00207871      -0.00075618      -0.00445459      -0.00206345       0.00063886       0.00070615
N        1.11875019      -0.89374337      -1.14259378      -0.02908664      -0.06089979       0.05899276       0.00106193      -0.00020160       0.00033644
H        0.89398883      -0.43716809      -2.01713409      -0.01863113       0.04451990      -0.05768696       0.00291254       0.00016012      -0.00022380
H        0.75979103      -1.83959604      -1.15178676       0.04092974       0.04417736      -0.01086266       0.00048559      -0.00002809      -0.00044991
C        0.88175569      -0.86799050       1.25571415       0.00694255      -0.01681647      -0.00442736      -0.00043728       0.00022967       0.00028610
H        0.53738442      -1.90651473       1.22529148      -0.06300352      -0.00950445       0.01080994      -0.00223078       0.00065821       0.00121352
H        1.95822976      -0.82954168       1.43845792       0.03709831      -0.03794801      -0.05142149      -0.00015095      -0.00128557      -0.00061443
H        0.36546063      -0.35707097       2.07564760       0.06643895       0.06351654       0.03745359       0.00092482       0.00168717       0.00036225
14
Properties=species:S:1:pos:R:3:mp2_forces:R:3:forces:R:3 R1=NH2 R2=CH3 R3=H R4=H lg=F nu=Cl rxn-id=2685 mp2_energy=-19942.284450410996 energy=-19942.340209578764 free_energy=-19942.284451607753 pbc="F F F"
C        0.59227711      -0.16151985      -0.05515651       0.00402267      -0.00604896      -0.01342448      -0.00255210      -0.00207726       0.00031810
C        1.18560917       1.22721172      -0.09566839      -0.01533618      -0.01676734       0.00083820      -0.01263681       0.00158057       0.00480013
H        2.24561083       1.17259944       0.15490568      -0.03097203      -0.00677828      -0.00324263      -0.00444938      -0.00125697      -0.02097812
F       -0.84322163      -0.00394206      -0.03806935       0.01177353      -0.00393260       0.00905027      -0.00515504      -0.01532875      -0.01348878
Cl       4.08832602       0.75986878       2.12556358      -0.03021822       0.02078794       0.05447993       0.00908448      -0.01240229      -0.02076449
H        0.68843321       1.85791802       0.64869268       0.01796324      -0.01354966      -0.02610453       0.00216816      -0.00829556       0.02741572
H        1.05580409       1.68183054      -1.08267973       0.00207871      -0.00075618      -0.00445459      -0.04000262       0.01589503       0.01130921
N        0.97000275      -0.89818537      -1.20884100      -0.02908664      -0.06089979       0.05899276       0.02053717      -0.00423220       0.00771836
H        0.58380085      -0.45519045      -2.03664859      -0.01863113       0.04451990      -0.05768696       0.05591154       0.00285712      -0.01145834
H        0.61016359      -1.84289748      -1.15056728       0.04092974       0.04417736      -0.01086266       0.00664691      -0.00078428      -0.00339242
C        0.96658696      -0.89955197       1.20902844       0.00694255      -0.01681647      -0.00442736      -0.00739006       0.00434398       0.00440088
H        0.72198346      -1.96257628       1.13123639      -0.06300352      -0.00950445       0.01080994      -0.04330252       0.00624135       0.01977567
H        2.03184437      -0.77330139       1.40670205       0.03709831      -0.03794801      -0.05142149       0.00368858      -0.02136793      -0.01810689
H        0.40735423      -0.47683737       2.05150629       0.06643895       0.06351654       0.03745359       0.01745168       0.03482720       0.01245099
14
Properties=species:S:1:pos:R:3:mp2_forces:R:3:forces:R:3 R1=NH2 R2=CH3 R3=H R4=H lg=F nu=Cl rxn-id=2685 mp2_energy=-19942.284450410996 energy=-19942.199669195386 free_energy=-19942.284451607753 pbc="F F F"
C        0.61016751      -0.14820017      -0.05733292       0.00402267      -0.00604896      -0.01342448      -0.03551227       0.00749050       0.01273754
C        1.27598463       1.21391737      -0.13210879      -0.01533618      -0.01676734       0.00083820      -0.03511499       0.00852573       0.01116011
H        2.28099654       1.17611965       0.29021425      -0.03097203      -0.00677828      -0.00324263      -0.00698361      -0.04671868      -0.04284434
F       -0.80720491       0.10382436       0.06278026       0.01177353      -0.00393260       0.00905027      -0.00906682      -0.03520863       0.00899127
Cl       4.00773049       0.86047777       2.29280011      -0.03021822       0.02078794       0.05447993       0.00967921      -0.01178681      -0.01906629
H        0.68291317       1.91428975       0.45998825       0.01796324      -0.01354966      -0.02610453       0.03216225       0.04375544       0.05609370
H        1.32964489       1.57068671      -1.16362868       0.00207871      -0.00075618      -0.00445459      -0.07007374       0.02252543       0.00999330
N        0.82171909      -0.87180257      -1.26327317      -0.02908664      -0.06089979       0.05899276       0.03261596      -0.00828002       0.02137787
H        0.19940530      -0.47129973      -1.96034096      -0.01863113       0.04451990      -0.05768696       0.12498767      -0.01324743      -0.11387231
H        0.54570472      -1.83628041      -1.13064508       0.04092974       0.04417736      -0.01086266       0.00232502      -0.00052476       0.00968380
C        1.02297072      -0.93150517       1.17661141       0.00694255      -0.01681647      -0.00442736      -0.02513638       0.01180838       0.01190143
H        1.02205569      -2.00775689       0.99383111      -0.06300352      -0.00950445       0.01080994      -0.06594476       0.01005213       0.00571513
H        2.01379756      -0.63028759       1.52321830       0.03709831      -0.03794801      -0.05142149       0.01233009      -0.01190459      -0.05537027
H        0.29868961      -0.71675679       1.96789019       0.06643895       0.06351654       0.03745359       0.03373236       0.02351332       0.08349905
14
Properties=species:S:1:pos:R:3:mp2_forces:R:3:forces:R:3 R1=NH2 R2=CH3 R3=H R4=H lg=F nu=Cl rxn-id=2685 mp2_energy=-19942.284450410996 energy=-19941.664205949524 free_energy=-19942.284451607753 pbc="F F F"
C        0.70946955      -0.16936886      -0.09222987       0.00402267      -0.00604896      -0.01342448      -2.01689742       0.52834774       0.30397019
C        1.37636193       1.18879996      -0.16568322      -0.01533618      -0.01676734       0.00083820      -0.19537443       0.02131654       0.02703921
H        2.30194703       1.30535660       0.40919959      -0.03097203      -0.00677828      -0.00324263      -0.06790697      -0.21888437      -0.04073963
F       -0.78112884       0.20448039       0.04415587       0.01177353      -0.00393260       0.00905027       2.09949435      -0.59858188       0.18559194
Cl       3.97218209       0.90125529       2.35669637      -0.03021822       0.02078794       0.05447993      -0.00091691      -0.00274845      -0.00487283
H        0.59560595       1.79353107       0.29782873       0.01796324      -0.01354966      -0.02610453       0.26100457       0.54923883       0.07449067
H        1.52978131       1.50354900      -1.19478843       0.00207871      -0.00075618      -0.00445459      -0.03247920      -0.03908881       0.00748867
N        0.72504188      -0.84989167      -1.32228709      -0.02908664      -0.06089979       0.05899276      -0.03097954       0.05795111      -0.01707174
H       -0.14949050      -0.42974863      -1.64302960      -0.01863113       0.04451990      -0.05768696       0.20644765      -0.33470533      -0.80041832
H        0.52552413      -1.83384633      -1.15791338       0.04092974       0.04417736      -0.01086266       0.05134946       0.04952247       0.02568482
C        1.09658186      -0.96631182       1.14225254       0.00694255      -0.01681647      -0.00442736      -0.24054363       0.08548514      -0.00494629
H        1.21364965      -2.03715056       0.97396199      -0.06300352      -0.00950445       0.01080994      -0.06187278       0.08250055      -0.09755350
H        1.98159602      -0.59617399       1.67747342       0.03709831      -0.03794801      -0.05142149      -0.06431525       0.07694644      -0.20291245
H        0.20745297      -0.78905417       1.73436734       0.06643895       0.06351654       0.03745359       0.09299009      -0.25729997       0.54424924
14
Properties=species:S:1:pos:R:3:mp2_forces:R:3:forces:R:3 R1=NH2 R2=CH3 R3=H R4=H lg=F nu=Cl rxn-id=2685 mp2_energy=-19942.284450410996 energy=-19940.859590603883 free_energy=-19942.284451607753 pbc="F F F"
C        0.86245605      -0.20944556      -0.11525412       0.00402267      -0.00604896      -0.01342448      -1.20926061       0.32214715       0.25066766
C        1.39127151       1.18714396      -0.16782739      -0.01533618      -0.01676734       0.00083820      -0.03587303       0.01528624       0.01550999
H        2.30710261       1.32194857       0.41232969      -0.03097203      -0.00677828      -0.00324263      -0.00414009      -0.14563993      -0.03399097
F       -0.94032125       0.24996919       0.03037640       0.01177353      -0.00393260       0.00905027       0.84888393      -0.26044639       0.17124211
Cl       3.97196210       0.90171067       2.35739890      -0.03021822       0.02078794       0.05447993      -0.00420851      -0.00147146      -0.00300207
H        0.57585593       1.75193107       0.29188314       0.01796324      -0.01354966      -0.02610453       0.16415555       0.35757315       0.04973041
H        1.53252024       1.50635209      -1.19546053       0.00207871      -0.00075618      -0.00445459       0.01131178      -0.03336503      -0.00225349
N        0.72715503      -0.85428624      -1.32093892      -0.02908664      -0.06089979       0.05899276       0.13233846      -0.01848202      -0.07934446
H       -0.16526195      -0.40419891      -1.58236898      -0.01863113       0.04451990      -0.05768696       0.09994949      -0.21968136      -0.51112979
H        0.52124077      -1.83756864      -1.15982790       0.04092974       0.04417736      -0.01086266       0.05552041       0.02480274       0.01568078
C        1.11494882      -0.97287058       1.14257820       0.00694255      -0.01681647      -0.00442736      -0.09812231       0.03504309      -0.00276045
H        1.21865806      -2.04344945       0.98121599      -0.06300352      -0.00950445       0.01080994      -0.00195459       0.04145471      -0.06950152
H        1.98651532      -0.60198121       1.69287295       0.03709831      -0.03794801      -0.05142149      -0.00690800       0.03940030      -0.13775699
H        0.20047175      -0.76982867       1.69302684       0.06643895       0.06351654       0.03745359       0.04830753      -0.15662120       0.33690877
14
Properties=species:S:1:pos:R:3:mp2_forces:R:3:forces:R:3 R1=NH2 R2=CH3 R3=H R4=H lg=F nu=Cl rxn-id=2685 mp2_energy=-19942.284450410996 energy=-19940.611812307416 free_energy=-19942.284451607753 pbc="F F F"
C        1.02263834      -0.25213384      -0.14844538       0.00402267      -0.00604896      -0.01342448      -0.24173521       0.06583656       0.05587678
C        1.39618338       1.18504705      -0.17005167      -0.01533618      -0.01676734       0.00083820      -0.00904947       0.00573108       0.00308976
H        2.30765690       1.34122236       0.41690141      -0.03097203      -0.00677828      -0.00324263       0.00133761      -0.03658709      -0.00993830
F       -1.05266687       0.28464751       0.00827183       0.01177353      -0.00393260       0.00905027       0.15617829      -0.04697738       0.04325515
Cl       3.97200293       0.90234237       2.35838616      -0.03021822       0.02078794       0.05447993      -0.00373123       0.00191645       0.00242327
H        0.55417501       1.70463399       0.28478657       0.01796324      -0.01354966      -0.02610453       0.03530164       0.08625162       0.01176774
H        1.53151022       1.51050890      -1.19534447       0.00207871      -0.00075618      -0.00445459       0.00325594      -0.01026833      -0.00140702
N        0.70921064      -0.85184357      -1.31032029      -0.02908664      -0.06089979       0.05899276       0.02740446      -0.00847685      -0.01437123
H       -0.17867722      -0.37481958      -1.51476795      -0.01863113       0.04451990      -0.05768696       0.02272772      -0.04346803      -0.12693192
H        0.51322439      -1.84079774      -1.16184755       0.04092974       0.04417736      -0.01086266       0.01268853       0.00301926       0.00634124
C        1.12816277      -0.97764627       1.14285099       0.00694255      -0.01681647      -0.00442736      -0.01919229       0.00456172       0.00214103
H        1.21946622      -2.04902194       0.99018269      -0.06300352      -0.00950445       0.01080994       0.00308387       0.00862284      -0.01827057
H        1.98749980      -0.60715022       1.71113286       0.03709831      -0.03794801      -0.05142149       0.00263425       0.00773244      -0.03324469
H        0.19418848      -0.74956275       1.64826908       0.06643895       0.06351654       0.03745359       0.00909588      -0.03789429       0.07926877
14
Properties=species:S:1:pos:R:3:mp2_forces:R:3:forces:R:3 R1=NH2 R2=CH3 R3=H R4=H lg=F nu=Cl rxn-id=2685 mp2_energy=-19942.284450410996 energy=-19940.641651910362 free_energy=-19942.284451607753 pbc="F F F"
C        1.17290909      -0.29427031      -0.18721935       0.00402267      -0.00604896      -0.01342448       0.28694827      -0.08079478      -0.07446344
C        1.40443229       1.17909753      -0.17344729      -0.01533618      -0.01676734       0.00083820       0.01691145      -0.01189499      -0.00775895
H        2.30540655       1.36864489       0.42572512      -0.03097203      -0.00677828      -0.00324263      -0.00430233       0.05199037       0.01728227
F       -1.13989322       0.31222890      -0.01912601       0.01177353      -0.00393260       0.00905027      -0.16582246       0.05429223      -0.04757286
Cl       3.97166730       0.90351871       2.36004855      -0.03021822       0.02078794       0.05447993      -0.00465336       0.00558557       0.00768084
H        0.53102784       1.64164885       0.27197227       0.01796324      -0.01354966      -0.02610453      -0.04386435      -0.12007654      -0.02804529