17
Properties=species:S:1:pos:R:3:mp2_forces:R:3:forces:R:3 R1=NO2 R2=CH3 R3=NH2 R4=CN lg=Cl nu=Cl rxn-id=1083 mp2_energy=-37799.835755531305 energy=-37799.835756073786 free_energy=-37799.835756073786 pbc="F F F"
C        0.44601598      -0.10984913       0.01737136       0.01400850       0.00059448       0.01261960       0.01397814       0.00057573       0.01260813
C        0.92455749       1.37479740      -0.01133650       0.00533228      -0.01414962       0.00054653       0.00533316      -0.01411889       0.00047818
H        1.91529487       1.34907404      -0.47782574       0.03367528      -0.01081647       0.05546001       0.03364629      -0.01081299       0.05547054
Cl      -1.27944303      -0.29943907      -0.45481757       0.03231689       0.05449793       0.01376635       0.03231735       0.05450418       0.01377042
Cl       3.90995736       0.53951789       0.92265789       0.00541047       0.04421002       0.05903424       0.00541246       0.04420992       0.05903517
N        1.20450662      -0.86859758      -1.07912326      -0.01610661       0.02506925       0.00676940      -0.01609005       0.02513671       0.00671757
O        1.46822080      -0.24257888      -2.09991547      -0.07846124       0.02118324      -0.00040652      -0.07846469       0.02116772      -0.00037108
O        1.44161090      -2.05423639      -0.88649383      -0.03651962       0.00497057      -0.00946994      -0.03652642       0.00493286      -0.00944332
C        0.64360726      -0.77918629       1.35091702      -0.00605201      -0.01673602      -0.00233396      -0.00604327      -0.01674477      -0.00232744
H        1.69447185      -0.70801059       1.63796958       0.00705770      -0.02713036      -0.06805380       0.00705140      -0.02712822      -0.06805727
H        0.02548402      -0.25594109       2.07804813       0.05067870       0.01793865       0.01713064       0.05068179       0.01793452       0.01712684
H        0.33935886      -1.82068011       1.27850733       0.02372870      -0.03571460       0.01675289       0.02372914      -0.03571112       0.01675892
N        1.00000992       1.91335065       1.34993861      -0.03125166      -0.01560153       0.00313815      -0.03123475      -0.01559246       0.00313054
H        1.02429938       2.92571949       1.28578607      -0.02041029      -0.02069251      -0.02698690      -0.02040955      -0.02069596      -0.02698170
H        1.92901405       1.62710424       1.67262501      -0.01799338       0.00546250      -0.00995732      -0.01800314       0.00546263      -0.00995618
C        0.06061986       2.23363109      -0.82223736       0.01159765      -0.03198438      -0.02833350       0.01167332      -0.03206841      -0.02825555
N       -0.60557980       2.99864362      -1.41368418       0.02298863      -0.00110116      -0.03967585       0.02294880      -0.00105145      -0.03970376
17
Properties=species:S:1:pos:R:3:mp2_forces:R:3:forces:R:3 R1=NO2 R2=CH3 R3=NH2 R4=CN lg=Cl nu=Cl rxn-id=1083 mp2_energy=-37799.835755531305 energy=-37799.986417915046 free_energy=-37799.835756073786 pbc="F F F"
C        0.41520892      -0.12114454       0.04314596       0.01400850       0.00059448       0.01261960      -0.00329560      -0.00916709      -0.00095760
C        0.97584162       1.31036414      -0.00112246       0.00533228      -0.01414962       0.00054653       0.00163925       0.01256811       0.00077274
H        2.03666701       1.22057367      -0.26973910       0.03367528      -0.01081647       0.05546001      -0.00052748       0.00167649       0.00303023
Cl      -1.36692367      -0.12538493      -0.05159270       0.03231689       0.05449793       0.01376635      -0.00170318      -0.00856270       0.00587187
Cl       3.93741140       1.02789733       1.57709678       0.00541047       0.04421002       0.05903424      -0.00143747       0.00290678       0.01817558
N        0.88040454      -0.86602308      -1.20535107      -0.01610661       0.02506925       0.00676940      -0.00804178      -0.00818944      -0.00221229
O        1.20490874      -0.18548383      -2.17576841      -0.07846124       0.02118324      -0.00040652       0.00134521      -0.00723734       0.00133933
O        0.87923529      -2.09004473      -1.15996430      -0.03651962       0.00497057      -0.00946994      -0.01934264      -0.00820380      -0.00679436
C        0.85865988      -0.86288684       1.27814065      -0.00605201      -0.01673602      -0.00233396       0.00434334      -0.00635089      -0.00296189
H        1.94879142      -0.81043343       1.35982902       0.00705770      -0.02713036      -0.06805380       0.00425581      -0.00337980      -0.00812728
H        0.42377307      -0.35626673       2.13562084       0.05067870       0.01793865       0.01713064       0.00824956      -0.00588006      -0.00113661
H        0.52025807      -1.89565829       1.23260541       0.02372870      -0.03571460       0.01675289       0.00643197      -0.00700721       0.00017250
N        0.82765473       1.90716491       1.32672146      -0.03125166      -0.01560153       0.00313815       0.00430893       0.01032913      -0.00228157
H        0.79559261       2.91571250       1.20950674      -0.02041029      -0.02069251      -0.02698690      -0.01321904       0.00650970       0.00583776
H        1.72402351       1.71369360       1.78115397      -0.01799338       0.00546250      -0.00995732       0.00512183       0.01440833      -0.00118294
C        0.30024489       2.14030428      -1.00190306       0.01159765      -0.03198438      -0.02833350       0.00571921       0.00989585      -0.00272062
N       -0.21974562       2.90093524      -1.72999266       0.02298863      -0.00110116      -0.03967585       0.00615208       0.00568395      -0.00682484
17
Properties=species:S:1:pos:R:3:mp2_forces:R:3:forces:R:3 R1=NO2 R2=CH3 R3=NH2 R4=CN lg=Cl nu=Cl rxn-id=1083 mp2_energy=-37799.835755531305 energy=-37799.84856319469 free_energy=-37799.835756073786 pbc="F F F"
C        0.32066124      -0.38247305       0.01102921       0.01400850       0.00059448       0.01261960      -0.00855715      -0.03009935      -0.00408766
C        1.02143666       1.67467515       0.02559863       0.00533228      -0.01414962       0.00054653       0.01794387       0.06257282       0.00105143
H        2.01364385       1.27607007      -0.20224324       0.03367528      -0.01081647       0.05546001       0.00083235       0.02519469       0.00340400
Cl      -1.41342655      -0.37761699       0.01129556       0.03231689       0.05449793       0.01376635      -0.00456545      -0.04361878       0.00192812
Cl       3.93359002       1.05804493       1.90575940       0.00541047       0.04421002       0.05903424      -0.00825928      -0.00715412       0.00084763
N        0.72665668      -1.08333314      -1.25414382      -0.01610661       0.02506925       0.00676940      -0.00905829      -0.02813845       0.00076975
O        1.10234035      -0.36365736      -2.18785065      -0.07846124       0.02118324      -0.00040652      -0.01135585      -0.02712573      -0.00122939
O        0.66235456      -2.30394877      -1.26375630      -0.03651962       0.00497057      -0.00946994      -0.00392915      -0.02816279      -0.00050379
C        0.90940337      -1.02559709       1.22214178      -0.00605201      -0.01673602      -0.00233396      -0.00281452      -0.02014819      -0.00170842
H        1.99524687      -0.90929471       1.20585660       0.00705770      -0.02713036      -0.06805380      -0.00469085      -0.01280699      -0.00597419
H        0.54772142      -0.47968303       2.09797111       0.05067870       0.01793865       0.01713064      -0.00402821      -0.01760530      -0.00404495
H        0.61472095      -2.07006362       1.26724171       0.02372870      -0.03571460       0.01675289       0.00334374      -0.02055344       0.00518023
N        0.97152936       2.19091820       1.27815456      -0.03125166      -0.01560153       0.00313815       0.02307800       0.04458277      -0.00370788
H        0.53901195       3.09110536       1.39395018      -0.02041029      -0.02069251      -0.02698690      -0.02303818       0.00601700       0.02751086
H        1.86878039       2.03883457       1.77120695      -0.01799338       0.00546250      -0.00995732       0.01221630       0.02683792      -0.00269780
C        0.43045619       2.42791754      -1.05022588       0.01159765      -0.03198438      -0.02833350       0.01419203       0.04685726      -0.00276853
N       -0.10212091       3.06142124      -1.88359870       0.02298863      -0.00110116      -0.03967585       0.00869063       0.02335067      -0.01396941
17
Properties=species:S:1:pos:R:3:mp2_forces:R:3:forces:R:3 R1=NO2 R2=CH3 R3=NH2 R4=CN lg=Cl nu=Cl rxn-id=1083 mp2_energy=-37799.835755531305 energy=-37800.39482743259 free_energy=-37799.835756073786 pbc="F F F"
C        0.11734260      -0.83964173       0.08794613       0.01400850       0.00059448       0.01261960      -0.00497906       0.01067307       0.00068964
C        1.58505399       2.76370370      -0.26016663       0.00533228      -0.01414962       0.00054653       0.00654182       0.00881224      -0.00162778
H        2.30642606       2.05155869      -0.66276388       0.03367528      -0.01081647       0.05546001       0.04425294       0.05654591      -0.00205449
Cl      -1.54440328      -1.11938036       0.13569219       0.03231689       0.05449793       0.01376635      -0.00458255       0.00793066      -0.00109330
Cl       3.58320425       0.62928750       2.18577188       0.00541047       0.04421002       0.05903424      -0.00747246      -0.02573975       0.01003547
N        0.64091249      -1.36287848      -1.09418953      -0.01610661       0.02506925       0.00676940      -0.00219587       0.01262259       0.00008608
O        0.92061499      -0.56240044      -2.03243387      -0.07846124       0.02118324      -0.00040652      -0.01692020       0.01249857      -0.00233466
O        0.80947017      -2.58812009      -1.19695768      -0.03651962       0.00497057      -0.00946994       0.01451164       0.01653215       0.00303822
C        0.83202867      -1.25678989       1.32144867      -0.00605201      -0.01673602      -0.00233396      -0.00618790       0.01205727       0.00084462
H        1.86716299      -0.90852550       1.28184904       0.00705770      -0.02713036      -0.06805380      -0.00632419       0.01227562       0.00249582
H        0.35683074      -0.77971589       2.17902551       0.05067870       0.01793865       0.01713064      -0.00690838       0.01224288       0.00010667
H        0.77789577      -2.34453867       1.42443123       0.02372870      -0.03571460       0.01675289      -0.00553233       0.01246423       0.00152235
N        1.31283913       2.60313405       1.02790794      -0.03125166      -0.01560153       0.00313815       0.00673704      -0.01390097      -0.00435104
H        0.45219773       2.88457590       1.45121201      -0.02041029      -0.02069251      -0.02698690      -0.00361538      -0.04680336      -0.01126024
H        1.88494897       1.89447272       1.54053746      -0.01799338       0.00546250      -0.00995732       0.01893609      -0.00476790      -0.00719918
C        0.53107171       3.16677150      -1.15936309       0.01159765      -0.03198438      -0.02833350      -0.00445118      -0.03188549      -0.00111935
N       -0.29159058       3.59180628      -1.88156029       0.02298863      -0.00110116      -0.03967585      -0.02181004      -0.05155771       0.01222119
17
Properties=species:S:1:pos:R:3:mp2_forces:R:3:forces:R:3 R1=NO2 R2=CH3 R3=NH2 R4=CN lg=Cl nu=Cl rxn-id=1083 mp2_energy=-37799.835755531305 energy=-37800.55673775971 free_energy=-37799.835756073786 pbc="F F F"
C        0.03469744      -0.75094738      -0.10773764       0.01400850       0.00059448       0.01261960       0.00034620       0.00144490       0.00222057
C        1.62760998       2.99613360      -0.00146740       0.00533228      -0.01414962       0.00054653      -0.00087470       0.00229987       0.00083817
H        2.63595197       2.70266643      -0.29959031       0.03367528      -0.01081647       0.05546001       0.00119944       0.00729658       0.00117272
Cl      -1.62455107      -1.03936577       0.06569573       0.03231689       0.05449793       0.01376635      -0.00021053       0.00307375      -0.00136238
Cl       3.70455169       0.57931535       2.18429132       0.00541047       0.04421002       0.05903424       0.00097086      -0.00177186      -0.00173138
N        0.49589465      -1.45944549      -1.23139579      -0.01610661       0.02506925       0.00676940      -0.00039475       0.00134475       0.00079141
O        0.39673867      -0.92101160      -2.35742101      -0.07846124       0.02118324      -0.00040652      -0.00825637      -0.00161846      -0.00065670
O        0.95594943      -2.60247518      -1.07573417      -0.03651962       0.00497057      -0.00946994       0.00591685       0.00402833       0.00167355
C        0.79452614      -0.97419735       1.14609776      -0.00605201      -0.01673602      -0.00233396      -0.00013733      -0.00133194       0.00228558
H        1.84169556      -0.69871436       1.01011974       0.00705770      -0.02713036      -0.06805380       0.00041719      -0.00177151       0.00242218
H        0.38261454      -0.32965217       1.92595946       0.05067870       0.01793865       0.01713064       0.00063113      -0.00216888       0.00383475
H        0.69950921      -2.02073106       1.44636571       0.02372870      -0.03571460       0.01675289      -0.00081346      -0.00172778       0.00065625
N        1.35910378       2.59324510       1.24926028      -0.03125166      -0.01560153       0.00313815      -0.00126149      -0.00263705      -0.00058404
H        0.40595260       2.48234263       1.55704549      -0.02041029      -0.02069251      -0.02698690      -0.00178280      -0.00601189      -0.00183763
H        2.04196130       1.93111399       1.66591766      -0.01799338       0.00546250      -0.00995732       0.00001308      -0.00240694      -0.00188129
C        0.62641478       2.75008718      -1.02399510       0.01159765      -0.03198438      -0.02833350      -0.00018864       0.00100577      -0.00378463
N       -0.23661427       2.58495537      -1.80502463       0.02298863      -0.00110116      -0.03967585       0.00442533       0.00095238      -0.00405713
17
Properties=species:S:1:pos:R:3:mp2_forces:R:3:forces:R:3 R1=NO2 R2=CH3 R3=NH2 R4=CN lg=Cl nu=Cl rxn-id=1083 mp2_energy=-37799.835755531305 energy=-37800.543302571365 free_energy=-37799.835756073786 pbc="F F F"
C        0.02491962      -0.75308536      -0.08733239       0.01400850       0.00059448       0.01261960      -0.04895398       0.00524766       0.01647083
C        1.61970619       2.95887672      -0.12010252       0.00533228      -0.01414962       0.00054653      -0.00307033      -0.00209508      -0.00039662
H        2.56006258       2.64958393      -0.57693351       0.03367528      -0.01081647       0.05546001      -0.00010631      -0.00230869       0.00412626
Cl      -1.62916670      -1.15245303      -0.03690391       0.03231689       0.05449793       0.01376635       0.09742614      -0.00008562      -0.09522542
Cl       3.70504601       0.42540756       2.14115588       0.00541047       0.04421002       0.05903424      -0.00014358      -0.00134875      -0.00597623
N        0.66855514      -1.35114016      -1.18409878      -0.01610661       0.02506925       0.00676940      -0.03145106       0.00090731       0.01541416
O        0.76889123      -0.69211205      -2.25231884      -0.07846124       0.02118324      -0.00040652      -0.03055467      -0.00301920       0.01613747
O        1.11111501      -2.50680379      -1.07735754      -0.03651962       0.00497057      -0.00946994      -0.02251882       0.00794336       0.02795133
C        0.65657241      -0.97860411       1.23538445      -0.00605201      -0.01673602      -0.00233396       0.00345380      -0.00206118       0.00601172
H        1.70353108      -0.67385275       1.22986683       0.00705770      -0.02713036      -0.06805380       0.00692054      -0.00172779      -0.02282825
H        0.12660241      -0.36209773       1.96297465       0.05067870       0.01793865       0.01713064       0.02242913      -0.00148973       0.03097573
H        0.55589015      -2.03402308       1.50531673       0.02372870      -0.03571460       0.01675289       0.01207734      -0.00279991       0.00716258
N        1.50800680       2.54037445       1.14491882      -0.03125166      -0.01560153       0.00313815      -0.00319790       0.00050450       0.00122012
H        0.60040917       2.46494610       1.58026982      -0.02041029      -0.02069251      -0.02698690      -0.00416343       0.00267103       0.00131976
H        2.20214765       1.85395366       1.49497131      -0.01799338       0.00546250      -0.00995732      -0.00476214      -0.00134950       0.00238899
C        0.46883301       2.77505422      -0.98575526       0.01159765      -0.03198438      -0.02833350       0.02573641       0.00200564       0.01440997
N       -0.50911536       2.65929471      -1.62566864       0.02298863      -0.00110116      -0.03967585      -0.01912114      -0.00099402      -0.01916241
17
Properties=species:S:1:pos:R:3:mp2_forces:R:3:forces:R:3 R1=NO2 R2=CH3 R3=NH2 R4=CN lg=Cl nu=Cl rxn-id=1083 mp2_energy=-37799.835755531305 energy=-37800.31373251631 free_energy=-37799.835756073786 pbc="F F F"
C        0.43117085      -0.82749711      -0.28045155       0.01400850       0.00059448       0.01261960       0.00522178      -0.00092397      -0.00967243
C        1.62537844       2.97159146      -0.14728761       0.00533228      -0.01414962       0.00054653       0.00041953       0.00214225       0.00277830
H        2.52302379       2.67478631      -0.69064083       0.03367528      -0.01081647       0.05546001       0.00309574       0.00605108       0.00506696
Cl      -2.48273485      -1.21291610       0.79110112       0.03231689       0.05449793       0.01376635      -0.05063598       0.00496661       0.05299173
Cl       3.70326336       0.37692430       2.17457535       0.00541047       0.04421002       0.05903424      -0.00204388      -0.00046418       0.00055489
N        0.99963632      -1.36846250      -1.32567481      -0.01610661       0.02506925       0.00676940       0.01174248      -0.00058970      -0.00648078
O        1.14201205      -0.67742303      -2.40311540      -0.07846124       0.02118324      -0.00040652       0.01076755      -0.00345577      -0.00791715
O        1.42004589      -2.56501480      -1.30440719      -0.03651962       0.00497057      -0.00946994       0.01916425       0.00230699      -0.00068885
C        0.55890609      -0.92437148       1.16813468      -0.00605201      -0.01673602      -0.00233396      -0.00012949      -0.00010618      -0.00928615
H        1.57272978      -0.61692165       1.46710141       0.00705770      -0.02713036      -0.06805380      -0.00155429       0.00171375      -0.00577048
H       -0.19690455      -0.29330941       1.61892962       0.05067870       0.01793865       0.01713064      -0.00321413      -0.00150226      -0.01255707
H        0.37546138      -1.96512794       1.46292192       0.02372870      -0.03571460       0.01675289       0.00113288      -0.00028575      -0.00917313
N        1.61854125       2.54560721       1.12016051      -0.03125166      -0.01560153       0.00313815      -0.00089406       0.00049682       0.00232328
H        0.74508913       2.46337816       1.62216873      -0.02041029      -0.02069251      -0.02698690      -0.00183158      -0.00234465       0.00032835
H        2.32935652       1.86186896       1.43153493      -0.01799338       0.00546250      -0.00995732      -0.00054213       0.00090093       0.00223957
C        0.40363286       2.76961725      -0.90724257       0.01159765      -0.03198438      -0.02833350       0.00418883      -0.00225443      -0.00060069
N       -0.62660191       2.61058966      -1.44942123       0.02298863      -0.00110116      -0.03967585       0.00511249      -0.00665155      -0.00413635
17
Properties=species:S:1:pos:R:3:mp2_forces:R:3:forces:R:3 R1=NO2 R2=CH3 R3=NH2 R4=CN lg=Cl nu=Cl rxn-id=1083 mp2_energy=-37799.835755531305 energy=-37800.58688681465 free_energy=-37799.835756073786 pbc="F F F"
C        0.70563479      -0.83786359      -0.39185869       0.01400850       0.00059448       0.01261960      -0.00508705       0.00632728      -0.00121109
C        1.68864298       3.01925692      -0.14865349       0.00533228      -0.01414962       0.00054653       0.00099756       0.00111221       0.00174618
H        2.60682794       2.76409664      -0.67769903       0.03367528      -0.01081647       0.05546001       0.00341635       0.00238758       0.00373325
Cl      -4.80670530      -1.63699161       1.60140716       0.03231689       0.05449793       0.01376635      -0.00000015      -0.00000004       0.00000000
Cl       3.71977306       0.46666687       2.33835984       0.00541047       0.04421002       0.05903424       0.00244739       0.00061083      -0.00358479
N        1.24314825      -1.36049731      -1.45301551      -0.01610661       0.02506925       0.00676940      -0.00294926       0.00097177       0.00077577
O        1.44515493      -0.62456878      -2.49468349      -0.07846124       0.02118324      -0.00040652      -0.00727738      -0.00431782      -0.00399404
O        1.58974223      -2.58197217      -1.49975029      -0.03651962       0.00497057      -0.00946994       0.00298886       0.00015348       0.00887867
C        0.76321313      -0.90894773       1.05837634      -0.00605201      -0.01673602      -0.00233396       0.00099515      -0.00104553      -0.00001105
H        1.75103959      -0.56036748       1.40077956       0.00705770      -0.02713036      -0.06805380       0.00173393      -0.00099925      -0.00219132
H       -0.00598475      -0.26569430       1.47298611       0.05067870       0.01793865       0.01713064       0.00099332      -0.00403588       0.00701756
H        0.61157002      -1.94782399       1.37210629       0.02372870      -0.03571460       0.01675289       0.00481113      -0.00397217      -0.00407840
N        1.67602224       2.59267217       1.11918567      -0.03125166      -0.01560153       0.00313815      -0.00260823      -0.00069735       0.00216310
H        0.79512564       2.49147726       1.60593194      -0.02041029      -0.02069251      -0.02698690      -0.00432743      -0.00230169       0.00009931
H        2.39154726       1.92574385       1.45169608      -0.01799338       0.00546250      -0.00995732      -0.00195340      -0.00003155       0.00285892
C        0.49046664       2.75321926      -0.92694456       0.01159765      -0.03198438      -0.02833350       0.00248755       0.00217787      -0.00347907
N       -0.52321225       2.53491328      -1.47983686       0.02298863      -0.00110116      -0.03967585       0.00333167       0.00366024      -0.00872301
17
Properties=species:S:1:pos:R:3:mp2_forces:R:3:forces:R:3 R1=NO2 R2=CH3 R3=NH2 R4=CN lg=Cl nu=Cl rxn-id=1083 mp2_energy=-37799.835755531305 energy=-37800.57910758804 free_energy=-37799.835756073786 pbc="F F F"
C        0.90208874      -1.11229180      -0.18572442       0.01400850       0.00059448       0.01261960      -0.00032390      -0.00236399       0.00099032
C        1.70456712       2.99090884      -0.27208056       0.00533228      -0.01414962       0.00054653      -0.00073523      -0.00034608      -0.00133098
H        2.44606121       2.64890673      -0.99569937       0.03367528      -0.01081647       0.05546001      -0.00207909      -0.00077071      -0.00258122
Cl      -5.46188123      -2.20802139       0.82039168       0.03231689       0.05449793       0.01376635      -0.00000000      -0.00000000      -0.00000000
Cl       3.96686747       0.47502039       2.14789572       0.00541047       0.04421002       0.05903424      -0.00063947      -0.00132862      -0.00006216
N        1.21877803      -1.42967136      -1.37704481      -0.01610661       0.02506925       0.00676940       0.00187823       0.00058682       0.00080260
O        1.53684204      -0.47814252      -2.23745730      -0.07846124       0.02118324      -0.00040652       0.00652691       0.00282372       0.00454299
O        1.25229857      -2.62792443      -1.81028691      -0.03651962       0.00497057      -0.00946994      -0.00005837       0.00204347      -0.00316642
C        0.76748792      -0.76851429       1.21055171      -0.00605201      -0.01673602      -0.00233396      -0.00138449      -0.00017299       0.00038450
H        1.73563292      -0.38304636       1.57442007       0.00705770      -0.02713036      -0.06805380      -0.00140068      -0.00003673       0.00053458
H       -0.00271648       0.00351199       1.31338159       0.05067870       0.01793865       0.01713064      -0.00112279       0.00038909      -0.00148083
H        0.49356936      -1.66509368       1.76900127       0.02372870      -0.03571460       0.01675289      -0.00225753       0.00089059       0.00161661
N        2.01412431       2.68702594       0.99273222      -0.03125166      -0.01560153       0.00313815       0.00144258      -0.00019935      -0.00177908
H        1.27255309       2.67525137       1.68838955      -0.02041029      -0.02069251      -0.02698690       0.00255089       0.00052183      -0.00043519
H        2.73665035       1.98760719       1.21033781      -0.01799338       0.00546250      -0.00995732       0.00102019      -0.00088025      -0.00274664
C        0.34102148       2.66163988      -0.65856578       0.01159765      -0.03198438      -0.02833350      -0.00153412      -0.00043952       0.00119847
N       -0.78193851       2.36615281      -0.84185537       0.02298863      -0.00110116      -0.03967585      -0.00188313      -0.00071728       0.00351244
17
Properties=species:S:1:pos:R:3:mp2_forces:R:3:forces:R:3 R1=NO2 R2=CH3 R3=NH2 R4=CN lg=Cl nu=Cl rxn-id=1083 mp2_energy=-37799.835755531305 energy=-37800.572840406334 free_energy=-37799.835756073786 pbc="F F F"
C        0.82275430      -1.10551091       0.01558655       0.01400850       0.00059448       0.01261960      -0.00600169      -0.00850923      -0.00052908
C        1.66997312       2.98195815      -0.32061283       0.00533228      -0.01414962       0.00054653      -0.00371737       0.00473170      -0.00301210
H        2.28268920       2.60622281      -1.14266275       0.03367528      -0.01081647       0.05546001      -0.00477327       0.00502575      -0.00405984
Cl      -5.49144121      -2.44733009      -0.26065312       0.03231689       0.05449793       0.01376635      -0.00000000      -0.00000000      -0.00000000
Cl       4.28917414       0.57722942       1.62843179       0.00541047       0.04421002       0.05903424      -0.01583175      -0.02566890       0.01714526
N        1.01176771      -1.45160211      -1.19377606      -0.01610661       0.02506925       0.00676940       0.00067552      -0.00220549      -0.00112981
O        1.34220412      -0.53314855      -2.08674691      -0.07846124       0.02118324      -0.00040652       0.00333248       0.00464116       0.00520140
O        0.89858211      -2.64822023      -1.61674437      -0.03651962       0.00497057      -0.00946994       0.00569484      -0.00179961      -0.00919719
C        0.80391709      -0.73609825       1.41101248      -0.00605201      -0.01673602      -0.00233396       0.00637248       0.00312513       0.00058891
H        1.77483672      -0.26994968       1.66301496       0.00705770      -0.02713036      -0.06805380       0.01712871      -0.00336410      -0.00749809
H       -0.01136420      -0.02657841       1.57469011       0.05067870       0.01793865       0.01713064       0.01141050       0.01332736       0.00362874
H        0.65892880      -1.63608119       2.01114193       0.02372870      -0.03571460       0.01675289       0.00119394       0.00779279       0.00664548
N        2.18691006       2.72919292       0.88426825      -0.03125166      -0.01560153       0.00313815      -0.00066826       0.00295557      -0.00412327
H        1.57050317       2.72878922       1.69394939      -0.02041029      -0.02069251      -0.02698690      -0.00045251       0.00227810      -0.00273348
H        2.94969101       2.04684576       0.99657223      -0.01799338       0.00546250      -0.00995732      -0.00792069      -0.00289689      -0.00519892
C        0.26096712       2.64914425      -0.46218355       0.01159765      -0.03198438      -0.02833350      -0.00355430       0.00165258      -0.00013502
N       -0.87808689       2.35845617      -0.44690103       0.02298863      -0.00110116      -0.03967585      -0.00288863      -0.00108591       0.00440701
17
Properties=species:S:1:pos:R:3:mp2_forces:R:3:forces:R:3 R1=NO2 R2=CH3 R3=NH2 R4=CN lg=Cl nu=Cl rxn-id=1083 mp2_energy=-37799.835755531305 energy=-37800.54189463729 free_energy=-37799.835756073786 pbc="F F F"
C        1.05795314      -1.06741145       0.09327791       0.01400850       0.00059448       0.01261960      -0.01673731      -0.02537597      -0.00549247
C        1.70879616       2.83943068      -0.28199066       0.00533228      -0.01414962       0.00054653       0.00302080       0.04033927      -0.00438903
H        2.26137424       2.43554412      -1.13458529       0.03367528      -0.01081647       0.05546001      -0.00038833       0.05008687      -0.01385414
Cl      -5.37609191      -2.39169888      -0.32050529       0.03231689       0.05449793       0.01376635      -0.00000000      -0.00000000      -0.00000000
Cl       4.73457694       1.25626904       1.08967120       0.00541047       0.04421002       0.05903424      -0.00122833      -0.00390017       0.01950912
N        1.09049298      -1.41241107      -1.13969438      -0.01610661       0.02506925       0.00676940      -0.00259962      -0.02912818      -0.00383134
O        1.56885318      -0.56954219      -2.03375279      -0.07846124       0.02118324      -0.00040652      -0.00054258      -0.02054584       0.00195479