13
Properties=species:S:1:pos:R:3:mp2_forces:R:3:forces:R:3 R1=H R2=CH3 R3=H R4=CN lg=Cl nu=F rxn-id=511 mp2_energy=-20943.780146120425 energy=-20943.780152727217 free_energy=-20943.780152727217 pbc="F F F"
C        0.27306684      -0.06024223       0.07916939      -0.00465945      -0.01088636      -0.00525541      -0.00473603      -0.01087281      -0.00525277
C        0.77337881       1.36582471      -0.03582784       0.01924129      -0.01573521      -0.00975657       0.01924777      -0.01570816      -0.00981115
H        1.89914547       1.16577169      -0.06740470       0.00308312      -0.01933038      -0.02280038       0.00309372      -0.01933634      -0.02279533
Cl      -1.55027849      -0.13334999       0.13781668      -0.00463076       0.00234194       0.00472641      -0.00457826       0.00233725       0.00472492
F        3.08615778       0.12888852      -0.28153410       0.07285678       0.02078282       0.06196778       0.07285213       0.02078315       0.06197152
H        0.56731123      -0.59335476      -0.82212748      -0.02287564      -0.01766052      -0.02017514      -0.02286282      -0.01766721      -0.02018492
H        0.45705362       1.95732140       0.82976955       0.06121796      -0.00145034      -0.01144043       0.06120647      -0.00144474      -0.01142549
C        0.87973738      -0.74247653       1.28481529      -0.00493486      -0.00193108      -0.00705993      -0.00493102      -0.00192943      -0.00705879
H        1.95758593      -0.68298576       1.08688930      -0.00534665       0.02033510       0.00715268      -0.00533445       0.02034031       0.00714457
H        0.61506366      -0.21694678       2.20776355      -0.01942254      -0.00729667      -0.00897006      -0.01942729      -0.00728823      -0.00896569
H        0.55000018      -1.78137127       1.35983166      -0.02122785       0.00152335       0.00750747      -0.02123396       0.00151289       0.00750419
C        0.37995790       2.03209916      -1.26420388      -0.02764210       0.05000492      -0.07555870      -0.02760519       0.04995869      -0.07548323
N        0.11713313       2.57868579      -2.27196200      -0.04565929      -0.02069757       0.07966230      -0.04569106      -0.02068536       0.07963216
13
Properties=species:S:1:pos:R:3:mp2_forces:R:3:forces:R:3 R1=H R2=CH3 R3=H R4=CN lg=Cl nu=F rxn-id=511 mp2_energy=-20943.780146120425 energy=-20943.78037394694 free_energy=-20943.780152727217 pbc="F F F"
C        0.27067850      -0.05956752       0.07571362      -0.00465945      -0.01088636      -0.00525541      -0.00500844      -0.00439042      -0.00779604
C        0.78134136       1.36189228      -0.04549791       0.01924129      -0.01573521      -0.00975657       0.01065459      -0.01158515      -0.01689339
H        1.90955594       1.16192818      -0.06989220       0.00308312      -0.01933038      -0.02280038       0.01466476      -0.02462643      -0.03093489
Cl      -1.55387335      -0.09924612       0.16858148      -0.00463076       0.00234194       0.00472641      -0.00555674       0.01050867       0.00067797
F        3.12541199       0.15759829      -0.22246127       0.07285678       0.02078282       0.06196778       0.04352104       0.03341234       0.06231047
H        0.53906863      -0.59654166      -0.83248470      -0.02287564      -0.01766052      -0.02017514      -0.01910973      -0.01506214      -0.00699967
H        0.47084717       1.96065574       0.81582882       0.06121796      -0.00145034      -0.01144043       0.04295184      -0.01350538      -0.00347607
C        0.87956507      -0.75026529       1.27450113      -0.00493486      -0.00193108      -0.00705993      -0.00604262       0.00006287      -0.00481448
H        1.95935461      -0.68455205       1.08350935      -0.00534665       0.02033510       0.00715268      -0.00486350       0.00057292       0.00151035
H        0.60906488      -0.23358610       2.20110831      -0.01942254      -0.00729667      -0.00897006      -0.00698391       0.00752614      -0.00895448
H        0.54878867      -1.78923769       1.34198779      -0.02122785       0.00152335       0.00750747      -0.00834724       0.00136710       0.00222032
C        0.37544849       2.02304811      -1.27291826      -0.02764210       0.05000492      -0.07555870      -0.01634736       0.00181451       0.00023799
N        0.09006149       2.56573778      -2.27498076      -0.04565929      -0.02069757       0.07966230      -0.03953271       0.01390497       0.01291193
13
Properties=species:S:1:pos:R:3:mp2_forces:R:3:forces:R:3 R1=H R2=CH3 R3=H R4=CN lg=Cl nu=F rxn-id=511 mp2_energy=-20943.780146120425 energy=-20943.76040804243 free_energy=-20943.780152727217 pbc="F F F"
C        0.27934380      -0.05462602       0.08356745      -0.00465945      -0.01088636      -0.00525541      -0.00731937      -0.00533064      -0.00927086
C        0.77089759       1.37554790      -0.02580541       0.01924129      -0.01573521      -0.00975657       0.01164030      -0.01410941      -0.01967342
H        1.89354131       1.18815347      -0.03981502       0.00308312      -0.01933038      -0.02280038       0.01831750      -0.03824670      -0.04352618
Cl      -1.54473053      -0.11939936       0.15551209      -0.00463076       0.00234194       0.00472641      -0.00838998       0.01013505      -0.00320154
F        3.06935729       0.10506376      -0.30473984       0.07285678       0.02078282       0.06196778       0.06071874       0.04617004       0.07735072
H        0.57250768      -0.57848297      -0.82315425      -0.02287564      -0.01766052      -0.02017514      -0.02257400      -0.01847753      -0.00833683
H        0.42926611       1.97515628       0.82330079       0.06121796      -0.00145034      -0.01144043       0.05463843      -0.01609463       0.00014148
C        0.88471944      -0.74658867       1.28336858      -0.00493486      -0.00193108      -0.00705993      -0.00871126       0.00019479      -0.00536304
H        1.96368146      -0.67927237       1.08943878      -0.00534665       0.02033510       0.00715268      -0.00737545      -0.00095401      -0.00073517
H        0.60819282      -0.23822400       2.21246185      -0.01942254      -0.00729667      -0.00897006      -0.00577932       0.01193124      -0.01044575
H        0.55995749      -1.78798067       1.34214444      -0.02122785       0.00152335       0.00750747      -0.01397517       0.00266725       0.00629965
C        0.39090861       2.02412947      -1.26938869      -0.02764210       0.05000492      -0.07555870      -0.02264693       0.00349395       0.00141465
N        0.12767036       2.55438713      -2.28389534      -0.04565929      -0.02069757       0.07966230      -0.04854348       0.01862060       0.01534630
13
Properties=species:S:1:pos:R:3:mp2_forces:R:3:forces:R:3 R1=H R2=CH3 R3=H R4=CN lg=Cl nu=F rxn-id=511 mp2_energy=-20943.780146120425 energy=-20943.72579104454 free_energy=-20943.780152727217 pbc="F F F"
C        0.28973630      -0.05145853       0.09213971      -0.00465945      -0.01088636      -0.00525541      -0.01384251      -0.00385821      -0.00820903
C        0.75754089       1.38946967      -0.00449465       0.01924129      -0.01573521      -0.00975657       0.01098810      -0.01514774      -0.01950462
H        1.87204060       1.22998936       0.00628127       0.00308312      -0.01933038      -0.02280038       0.02180574      -0.06480156      -0.06520387
Cl      -1.53298504      -0.13940427       0.15205240      -0.00463076       0.00234194       0.00472641      -0.01412517       0.00612467      -0.01519511
F        2.99303956       0.04084297      -0.40731893       0.07285678       0.02078282       0.06196778       0.08374135       0.06249511       0.09906171
H        0.60617073      -0.56167104      -0.81284960      -0.02287564      -0.01766052      -0.02017514      -0.02216861      -0.01536442      -0.00619656
H        0.36791951       1.98887289       0.82406657       0.06121796      -0.00145034      -0.01144043       0.07204843      -0.01297868       0.01068364
C        0.89397707      -0.74299446       1.29297348      -0.00493486      -0.00193108      -0.00705993      -0.01345481       0.00081536      -0.00581775
H        1.97187265      -0.67206619       1.09801829      -0.00534665       0.02033510       0.00715268      -0.01303318      -0.00095673      -0.01235969
H        0.60683798      -0.24535190       2.22429658      -0.01942254      -0.00729667      -0.00897006       0.00094012       0.01580326      -0.00885910
H        0.57950991      -1.78819642       1.34125772      -0.02122785       0.00152335       0.00750747      -0.02173247       0.00444524       0.01095159
C        0.41646239       2.02406632      -1.26876311      -0.02764210       0.05000492      -0.07555870      -0.03254568       0.00533786       0.00456535
N        0.18319089       2.54576556      -2.29466429      -0.04565929      -0.02069757       0.07966230      -0.05862130       0.01808584       0.01608346
13
Properties=species:S:1:pos:R:3:mp2_forces:R:3:forces:R:3 R1=H R2=CH3 R3=H R4=CN lg=Cl nu=F rxn-id=511 mp2_energy=-20943.780146120425 energy=-20943.677216193286 free_energy=-20943.780152727217 pbc="F F F"
C        0.30239666      -0.04878585       0.10002740      -0.00465945      -0.01088636      -0.00525541      -0.02684484      -0.00047307      -0.00296818
C        0.74543304       1.40332298       0.01375158       0.01924129      -0.01573521      -0.00975657       0.00494055      -0.01444536      -0.01281325
H        1.84962254       1.29376324       0.07153680       0.00308312      -0.01933038      -0.02280038       0.02145482      -0.10348974      -0.08945241
Cl      -1.51999533      -0.14455281       0.17162396      -0.00463076       0.00234194       0.00472641      -0.02320570      -0.00490159      -0.03681074
F        2.91276370      -0.01628769      -0.50195840       0.07285678       0.02078282       0.06196778       0.10912973       0.06985743       0.11236118
H        0.62414346      -0.54873101      -0.80750150      -0.02287564      -0.01766052      -0.02017514      -0.00950005      -0.00411824       0.00399768
H        0.29328947       2.00076458       0.81121675       0.06121796      -0.00145034      -0.01144043       0.08513464      -0.00102971       0.02823463
C        0.90800434      -0.74466547       1.29789514      -0.00493486      -0.00193108      -0.00705993      -0.02078547       0.00452946      -0.00438191
H        1.98530052      -0.67291084       1.10763717      -0.00534665       0.02033510       0.00715268      -0.02369629       0.00814136      -0.04120892
H        0.60922678      -0.26039488       2.23220054      -0.01942254      -0.00729667      -0.00897006       0.01192166       0.01921886      -0.00057601
H        0.60013219      -1.79289933       1.33207482      -0.02122785       0.00152335       0.00750747      -0.02556294       0.00723992       0.01674455
C        0.44985485       2.01866160      -1.27451310      -0.02764210       0.05000492      -0.07555870      -0.04198870       0.00647449       0.01027395
N        0.24514121       2.53057942      -2.31099574      -0.04565929      -0.02069757       0.07966230      -0.06099742       0.01299618       0.01659943
13
Properties=species:S:1:pos:R:3:mp2_forces:R:3:forces:R:3 R1=H R2=CH3 R3=H R4=CN lg=Cl nu=F rxn-id=511 mp2_energy=-20943.780146120425 energy=-20943.610006258976 free_energy=-20943.780152727217 pbc="F F F"
C        0.32464013      -0.04798612       0.10333398      -0.00465945      -0.01088636      -0.00525541      -0.05586865       0.00533997       0.01188105
C        0.74028086       1.41619818       0.02492938       0.01924129      -0.01573521      -0.00975657      -0.01475735      -0.01265260       0.00272725
H        1.83022859       1.38421304       0.15093317       0.00308312      -0.01933038      -0.02280038       0.01227115      -0.15275748      -0.09738716
Cl      -1.50089143      -0.13887354       0.20766297      -0.00463076       0.00234194       0.00472641      -0.02923946      -0.01798753      -0.06435309
F        2.81965781      -0.07321112      -0.59578373       0.07285678       0.02078282       0.06196778       0.15452167       0.05584051       0.09103037
H        0.62914846      -0.54482480      -0.81105234      -0.02287564      -0.01766052      -0.02017514       0.02881443       0.01741890       0.03051040
H        0.21700763       2.00306207       0.78499575       0.06121796      -0.00145034      -0.01144043       0.08127494       0.02845171       0.04631237
C        0.92664039      -0.74972355       1.30068048      -0.00493486      -0.00193108      -0.00705993      -0.03596802       0.01229540       0.00137929
H        2.00617946      -0.68127958       1.14008545      -0.00534665       0.02033510       0.00715268      -0.04453179       0.03296897      -0.10368378
H        0.60196539      -0.27906590       2.23287031      -0.01942254      -0.00729667      -0.00897006       0.02669857       0.01635617       0.02349267
H        0.62182229      -1.80004710       1.31618836      -0.02122785       0.00152335       0.00750747      -0.02474844       0.00895438       0.02497140
C        0.48754264       2.01203251      -1.28453944      -0.02764210       0.05000492      -0.07555870      -0.04844116       0.00302678       0.01658627
N        0.30109122       2.51736986      -2.32730892      -0.04565929      -0.02069757       0.07966230      -0.05002587       0.00274482       0.01653298
13
Properties=species:S:1:pos:R:3:mp2_forces:R:3:forces:R:3 R1=H R2=CH3 R3=H R4=CN lg=Cl nu=F rxn-id=511 mp2_energy=-20943.780146120425 energy=-20943.460371908266 free_energy=-20943.780152727217 pbc="F F F"
C        0.38004871      -0.05285657       0.09232556      -0.00465945      -0.01088636      -0.00525541      -0.30935921       0.01463188       0.08649029
C        0.75407329       1.42958385       0.02270906       0.01924129      -0.01573521      -0.00975657      -0.07407184      -0.02921791       0.02484872
H        1.81642822       1.53963039       0.25202357       0.00308312      -0.01933038      -0.02280038      -0.01836709      -0.24824544      -0.07697615
Cl      -1.47224184      -0.12059679       0.27587174      -0.00463076       0.00234194       0.00472641       0.07695815      -0.01854422      -0.08987534
F        2.66323208      -0.12741669      -0.68698189       0.07285678       0.02078282       0.06196778       0.32294760       0.02118529      -0.04506251
H        0.59764545      -0.56147752      -0.84152650      -0.02287564      -0.01766052      -0.02017514       0.15865706       0.07004318       0.11272986
H        0.13201965       1.97597034       0.73664018       0.06121796      -0.00145034      -0.01144043       0.06144741       0.10542950       0.04804138
C        0.96363661      -0.76290650       1.29864419      -0.00493486      -0.00193108      -0.00705993      -0.09374738       0.02884806       0.01109370
H        2.05154094      -0.71541832       1.24184179      -0.00534665       0.02033510       0.00715268      -0.09323072       0.09624357      -0.23797521
H        0.57775944      -0.29732997       2.20970002      -0.01942254      -0.00729667      -0.00897006       0.03997604      -0.01105864       0.09143729
H        0.64699117      -1.80974819       1.28967497      -0.02122785       0.00152335       0.00750747      -0.01042724      -0.00278954       0.03772169
C        0.53841765       2.00803216      -1.30210774      -0.02764210       0.05000492      -0.07555870      -0.04005520      -0.01611499       0.01930652
N        0.35576206       2.51239776      -2.34581954      -0.04565929      -0.02069757       0.07966230      -0.02072757      -0.01041075       0.01821975
13
Properties=species:S:1:pos:R:3:mp2_forces:R:3:forces:R:3 R1=H R2=CH3 R3=H R4=CN lg=Cl nu=F rxn-id=511 mp2_energy=-20943.780146120425 energy=-20943.232257957807 free_energy=-20943.780152727217 pbc="F F F"
C        0.48155784      -0.05755259       0.06420010      -0.00465945      -0.01088636      -0.00525541      -1.08914537       0.00398701       0.24138821
C        0.77808073       1.43932945       0.01476439       0.01924129      -0.01573521      -0.00975657      -0.05529590      -0.05216372       0.00578194
H        1.82195910       1.62150530       0.27814182       0.00308312      -0.01933038      -0.02280038      -0.01123060      -0.18709816      -0.03947719
Cl      -1.49739643      -0.11502263       0.30548567      -0.00463076       0.00234194       0.00472641       0.47128236       0.01438602      -0.09047366
F        2.55675350      -0.13445147      -0.67334929       0.07285678       0.02078282       0.06196778       0.47378348       0.00311094      -0.16074002
H        0.54564321      -0.58416364      -0.87827125      -0.02287564      -0.01766052      -0.02017514       0.27376535       0.07025524       0.09388900
H        0.11106282       1.94178551       0.72047413       0.06121796      -0.00145034      -0.01144043       0.04175640       0.11079790       0.01887449
C        0.99447435      -0.77242828       1.29508112      -0.00493486      -0.00193108      -0.00705993      -0.07820818       0.02426353      -0.01150065
H        2.08216681      -0.74735591       1.31947468      -0.00534665       0.02033510       0.00715268      -0.06234679       0.07989326      -0.20110714
H        0.56524717      -0.29375846       2.18000252      -0.01942254      -0.00729667      -0.00897006       0.03456371      -0.02378875       0.09144189
H        0.65020364      -1.80881837       1.27746636      -0.02122785       0.00152335       0.00750747       0.01372379      -0.01984566       0.03238755
C        0.55207701       2.01319122      -1.30850860      -0.02764210       0.05000492      -0.07555870      -0.00221911      -0.01867314       0.00623937
N        0.36348369       2.51560381      -2.35196622      -0.04565929      -0.02069757       0.07966230      -0.01042914      -0.00512449       0.01329621
13
Properties=species:S:1:pos:R:3:mp2_forces:R:3:forces:R:3 R1=H R2=CH3 R3=H R4=CN lg=Cl nu=F rxn-id=511 mp2_energy=-20943.780146120425 energy=-20943.1013355467 free_energy=-20943.780152727217 pbc="F F F"
C        0.59188631      -0.05792856       0.03981012      -0.00465945      -0.01088636      -0.00525541      -0.14466023       0.00182705       0.03551133
C        0.78360011       1.44466801       0.01422318       0.01924129      -0.01573521      -0.00975657      -0.00364011      -0.00403973       0.00072280
H        1.82293251       1.64066402       0.28242800       0.00308312      -0.01933038      -0.02280038      -0.00122827      -0.01964646      -0.00234213
Cl      -1.54499178      -0.11662952       0.31476035      -0.00463076       0.00234194       0.00472641       0.05446369       0.00028131      -0.00848326
F        2.50853591      -0.13475533      -0.65736891       0.07285678       0.02078282       0.06196778       0.05406957       0.00180200      -0.02141701
H        0.51776725      -0.59121851      -0.88773357      -0.02287564      -0.01766052      -0.02017514       0.03732282       0.00583277       0.00519915
H        0.10655319       1.93065912       0.71839044       0.06121796      -0.00145034      -0.01144043       0.00245016       0.01402295      -0.00029755
C        1.00244975      -0.77491805       1.29625425      -0.00493486      -0.00193108      -0.00705993      -0.00522214       0.00130857      -0.00049128
H        2.08854081      -0.75560544       1.33978169      -0.00534665       0.02033510       0.00715268      -0.00515228       0.00776244      -0.02405617
H        0.56192174      -0.29137799       2.17080797      -0.01942254      -0.00729667      -0.00897006       0.00574385      -0.00348686       0.01095198
H        0.64876353      -1.80681002       1.27421447      -0.02122785       0.00152335       0.00750747       0.00153784      -0.00248108       0.00416500
C        0.55249686       2.01504985      -1.30918239      -0.02764210       0.05000492      -0.07555870       0.00284025      -0.00235210      -0.00020464
N        0.36485723       2.51606636      -2.35339018      -0.04565929      -0.02069757       0.07966230       0.00147486      -0.00083086       0.00074175
13
Properties=species:S:1:pos:R:3:mp2_forces:R:3:forces:R:3 R1=H R2=CH3 R3=H R4=CN lg=Cl nu=F rxn-id=511 mp2_energy=-20943.780146120425 energy=-20943.19294014196 free_energy=-20943.780152727217 pbc="F F F"
C        0.70697982      -0.05993011       0.00958466      -0.00465945      -0.01088636      -0.00525541       1.24238823      -0.02128503      -0.32596951
C        0.78259753       1.44652233       0.01429687       0.01924129      -0.01573521      -0.00975657      -0.01157178       0.02059160       0.00121889
H        1.82139013       1.65540626       0.28614222       0.00308312      -0.01933038      -0.02280038      -0.01824509       0.16108632       0.04282279
Cl      -1.57953685      -0.11787922       0.32042192      -0.00463076       0.00234194       0.00472641      -0.37114458      -0.01509025       0.06225010
F        2.46864107      -0.13705160      -0.64421175       0.07285678       0.02078282       0.06196778      -0.43308596      -0.02462475       0.13948581
H        0.48476885      -0.59234241      -0.88566799      -0.02287564      -0.01766052      -0.02017514      -0.35798746      -0.01150658       0.02284632
H        0.10295298       1.92130805       0.71826810       0.06121796      -0.00145034      -0.01144043      -0.04158536      -0.10003249      -0.00302205
C        1.00356773      -0.77496796       1.29592319      -0.00493486      -0.00193108      -0.00705993       0.01267194      -0.00083757      -0.00354033
H        2.09122726      -0.76201685       1.35616529      -0.00534665       0.02033510       0.00715268       0.02965249      -0.07083813       0.17623154
H        0.55900212      -0.28872692       2.16389280      -0.01942254      -0.00729667      -0.00897006      -0.02974628       0.02836809      -0.07400277
H        0.64700724      -1.80492671       1.27139636      -0.02122785       0.00152335       0.00750747      -0.01948260       0.02036439      -0.03013544
C        0.55065929       2.01643542      -1.30887288      -0.02764210       0.05000492      -0.07555870      -0.01791895       0.01471120       0.00291075
N        0.36605627       2.51603368      -2.35434338      -0.04565929      -0.02069757       0.07966230       0.01605540      -0.00090679      -0.01109611
13
Properties=species:S:1:pos:R:3:mp2_forces:R:3:forces:R:3 R1=H R2=CH3 R3=H R4=CN lg=Cl nu=F rxn-id=511 mp2_energy=-20943.780146120425 energy=-20943.584655969837 free_energy=-20943.780152727217 pbc="F F F"
C        0.83244983      -0.06501499      -0.03013942      -0.00465945      -0.01088636      -0.00525541       3.01191478      -0.12278334      -0.95427792
C        0.78234202       1.44601163       0.01319699       0.01924129      -0.01573521      -0.00975657      -0.00539294      -0.01384318      -0.02254417
H        1.81938813       1.67094399       0.29074960       0.00308312      -0.01933038      -0.02280038      -0.04852824       0.37214969       0.11412419
Cl      -1.61095103      -0.11923425       0.32501690      -0.00463076       0.00234194       0.00472641      -0.74680019      -0.03406641       0.11045820
F        2.40899476      -0.13951661      -0.62487631       0.07285678       0.02078282       0.06196778      -1.45014738      -0.05789287       0.46754476
H        0.45572965      -0.59017615      -0.87820786      -0.02287564      -0.01766052      -0.02017514      -0.69154014       0.05273239       0.17881581
H        0.10005511       1.91191906       0.71862287       0.06121796      -0.00145034      -0.01144043      -0.07172035      -0.22305774       0.00818432
C        1.00474678      -0.77361307       1.29333185      -0.00493486      -0.00193108      -0.00705993       0.02919068       0.03199111      -0.06239089
H        2.09352795      -0.76863570       1.37304159      -0.00534665       0.02033510       0.00715268       0.05522033      -0.15931068       0.40162480
H        0.55675993      -0.28574143       2.15743718      -0.01942254      -0.00729667      -0.00897006      -0.05121192       0.07091774      -0.15330589
H        0.64602089      -1.80308606       1.26851072      -0.02122785       0.00152335       0.00750747      -0.02360945       0.04409020      -0.06857882
C        0.54921265       2.01769860      -1.30815309      -0.02764210       0.05000492      -0.07555870      -0.03948228       0.04866974      -0.02266933
N        0.36703677       2.51630893      -2.35553559      -0.04565929      -0.02069757       0.07966230       0.03210710      -0.00959666       0.00301493
13
Properties=species:S:1:pos:R:3:mp2_forces:R:3:forces:R:3 R1=H R2=CH3 R3=H R4=CN lg=Cl nu=F rxn-id=511 mp2_energy=-20943.780146120425 energy=-20944.360654901564 free_energy=-20943.780152727217 pbc="F F F"
C        0.95625141      -0.07203970      -0.07204072      -0.00465945      -0.01088636      -0.00525541       1.52208809      -0.08596370      -0.51661049
C        0.79816298       1.44230378       0.00619551       0.01924129      -0.01573521      -0.00975657       0.19605900      -0.04386939      -0.08839164
H        1.81833579       1.70756627       0.30168812       0.00308312      -0.01933038      -0.02280038      -0.01493353       0.45615638       0.13788366
Cl      -1.67793056      -0.12232443       0.33478410      -0.00463076       0.00234194       0.00472641      -0.82803308      -0.03991790       0.12242792
F        2.34681655      -0.14776538      -0.60815544       0.07285678       0.02078282       0.06196778      -0.76539784      -0.10307240       0.20240012
H        0.42488141      -0.58303151      -0.86206074      -0.02287564      -0.01766052      -0.02017514      -0.38280651       0.08930400       0.20097348
H        0.09604103       1.88496399       0.71749501       0.06121796      -0.00145034      -0.01144043      -0.05261966      -0.33420548      -0.01645293
C        1.02086702      -0.77133233       1.28196392      -0.00493486      -0.00193108      -0.00705993       0.20143228       0.02808422      -0.14075886
H        2.10275645      -0.78380813       1.41057767      -0.00534665       0.02033510       0.00715268       0.11546060      -0.19009770       0.46481995
H        0.55386783      -0.27729953       2.13859439      -0.01942254      -0.00729667      -0.00897006      -0.03412527       0.10489287      -0.23329955
H        0.64703944      -1.79754120       1.25995449      -0.02122785       0.00152335       0.00750747       0.01241356       0.06905385      -0.10622800
C        0.54929031       2.02171822      -1.30905450      -0.02764210       0.05000492      -0.07555870       0.00867676       0.03585912       0.01775722
N        0.36893378       2.51645390      -2.35694639      -0.04565929      -0.02069757       0.07966230       0.02178561       0.01377613      -0.04452088
13
Properties=species:S:1:pos:R:3:mp2_forces:R:3:forces:R:3 R1=H R2=CH3 R3=H R4=CN lg=Cl nu=F rxn-id=511 mp2_energy=-20943.780146120425 energy=-20944.704878439126 free_energy=-20943.780152727217 pbc="F F F"
C        1.03625216      -0.07329305      -0.09102777      -0.00465945      -0.01088636      -0.00525541       0.22961388      -0.00336829      -0.05454778
C        0.83913582       1.43996565      -0.00220936       0.01924129      -0.01573521      -0.00975657       0.11713942      -0.00652921      -0.02409479
H        1.81775559       1.79325082       0.33119860       0.00308312      -0.01933038      -0.02280038      -0.00331661       0.24702697       0.08675692
Cl      -1.83098799      -0.12752308       0.36464811      -0.00463076       0.00234194       0.00472641      -0.43819661      -0.01748240       0.08703770
F        2.34674970      -0.19179133      -0.64604739       0.07285678       0.02078282       0.06196778      -0.00193651      -0.12575763      -0.11020743
H        0.37500699      -0.55166165      -0.81204852      -0.02287564      -0.01766052      -0.02017514      -0.14473401       0.09092525       0.14457725
H        0.07856779       1.78757675       0.69997269       0.06121796      -0.00145034      -0.01144043      -0.05235737      -0.27806901      -0.05157152
C        1.06698721      -0.76570525       1.26725415      -0.00493486      -0.00193108      -0.00705993       0.13299435       0.01598587      -0.04281505
H        2.13010578      -0.81109984       1.49792212      -0.00534665       0.02033510       0.00715268       0.07881392      -0.08005478       0.24952537
H        0.54083574      -0.25011019       2.07368496      -0.01942254      -0.00729667      -0.00897006      -0.03542558       0.07801377      -0.18514842
H        0.66176513      -1.77979274       1.22928648      -0.02122785       0.00152335       0.00750747       0.04121573       0.05118108      -0.08751127
C        0.56584703       2.02835402      -1.31045601      -0.02764210       0.05000492      -0.07555870       0.04851443       0.02054345      -0.00725308
N        0.37729249       2.51969386      -2.35918265      -0.04565929      -0.02069757       0.07966230       0.02767494       0.00758493      -0.00474790
13
Properties=species:S:1:pos:R:3:mp2_forces:R:3:forces:R:3 R1=H R2=CH3 R3=H R4=CN lg=Cl nu=F rxn-id=511 mp2_energy=-20943.780146120425 energy=-20944.888140724113 free_energy=-20943.780152727217 pbc="F F F"
C        1.07178459      -0.07497292      -0.10141340      -0.00465945      -0.01088636      -0.00525541       0.02718061      -0.00114871      -0.00822148
C        0.87648875       1.43292027      -0.00768294       0.01924129      -0.01573521      -0.00975657       0.02713477      -0.00530986      -0.00422795
H        1.79710709       1.86126138       0.40086934       0.00308312      -0.01933038      -0.02280038      -0.01830826       0.05269521       0.05511882
Cl      -2.01499955      -0.11843494       0.44035441      -0.00463076       0.00234194       0.00472641      -0.13771356       0.00791369       0.06139104