16
Properties=species:S:1:pos:R:3:mp2_forces:R:3:forces:R:3 R1=CN R2=CN R3=CH3 R4=NH2 lg=Cl nu=F rxn-id=1452 mp2_energy=-24951.619493867092 energy=-24951.619493867092 free_energy=-24951.619493867092 pbc="F F F"
C        0.46428125      -0.04059242      -0.04312141      -0.06039832      -0.06163312      -0.00526729      -0.06039832      -0.06163312      -0.00526729
C        0.63232028       1.49280525      -0.05022558       0.02326462       0.00696670      -0.00407405       0.02326462       0.00696670      -0.00407405
H        1.70941367       1.57713263      -0.17606275       0.08313642       0.04501635      -0.02635794       0.08313642       0.04501635      -0.02635794
Cl      -1.36000351      -0.41615576      -0.12037395      -0.03971099       0.03896021       0.01495427      -0.03971099       0.03896021       0.01495427
F        2.75971650      -0.00738038       0.31731920      -0.00255989       0.02414026       0.06089597      -0.00255989       0.02414026       0.06089597
C        1.02503238      -0.66525772      -1.23782878       0.04415252      -0.02235802      -0.03039670       0.04415252      -0.02235802      -0.03039670
N        1.30715930      -1.21523626      -2.23699475       0.00428483       0.02828946      -0.03496860       0.00428483       0.02828946      -0.03496860
C        0.94880087      -0.66877356       1.18929481      -0.01301473      -0.01269259       0.04675115      -0.01301473      -0.01269259       0.04675115
N        0.90659552      -1.20173094       2.24184939       0.04600804       0.02043800      -0.03197681       0.04600804       0.02043800      -0.03197681
C        0.22347740       2.09626038       1.28859798      -0.01900627      -0.00940995       0.01035862      -0.01900627      -0.00940995       0.01035862
H       -0.80743309       1.83156889       1.53807002      -0.04150284       0.02192648       0.03466246      -0.04150284       0.02192648       0.03466246
H        0.87786146       1.74496231       2.08821164       0.00635795      -0.01666382      -0.01395990       0.00635795      -0.01666382      -0.01395990
H        0.29564070       3.18789140       1.23695104       0.01596638      -0.02300268      -0.03336975       0.01596638      -0.02300268      -0.03336975
N       -0.04216617       2.04841030      -1.21925592      -0.01062865      -0.00732766      -0.00010846      -0.01062865      -0.00732766      -0.00010846
H        0.26191133       3.00796474      -1.34375833       0.02562384      -0.07863373       0.02142464       0.02562384      -0.07863373       0.02142464
H       -1.04196740       2.05998803      -1.05698576      -0.06197290       0.04598411      -0.00856761      -0.06197290       0.04598411      -0.00856761
16
Properties=species:S:1:pos:R:3:mp2_forces:R:3:forces:R:3 R1=CN R2=CN R3=CH3 R4=NH2 lg=Cl nu=F rxn-id=1452 mp2_energy=-24951.619493867092 energy=-24951.622081794354 free_energy=-24951.619493867092 pbc="F F F"
C        0.45797091      -0.04300994      -0.04933208      -0.06039832      -0.06163312      -0.00526729      -0.00774119      -0.00509693      -0.00147424
C        0.62891490       1.49101517      -0.06091594       0.02326462       0.00696670      -0.00407405      -0.01034326      -0.00612773      -0.00322453
H        1.70287066       1.59842537      -0.21080791       0.08313642       0.04501635      -0.02635794      -0.00988336      -0.01385405      -0.00510284
Cl      -1.37076255      -0.40133341      -0.15216110      -0.03971099       0.03896021       0.01495427      -0.00246273      -0.01284575       0.00528334
F        2.73598796       0.01778699       0.39133051      -0.00255989       0.02414026       0.06089597      -0.00485907       0.00252956       0.03159065
C        1.04614484      -0.66334254      -1.23353719       0.04415252      -0.02235802      -0.03039670      -0.00573986       0.00217388      -0.00397441
N        1.35280273      -1.18895592      -2.23915417       0.00428483       0.02828946      -0.03496860       0.01163073       0.01042363      -0.00299929
C        0.90741007      -0.67601061       1.19336253      -0.01301473      -0.01269259       0.04675115       0.01479240       0.00319071      -0.00529531
N        0.85975797      -1.21512136       2.24174517       0.04600804       0.02043800      -0.03197681       0.01602843       0.00713944      -0.00288769
C        0.25379853       2.09086615       1.28953969      -0.01900627      -0.00940995       0.01035862      -0.00300613      -0.00437053      -0.00215622
H       -0.76605653       1.82436820       1.58196071      -0.04150284       0.02192648       0.03466246      -0.00380225       0.00216093       0.00190981
H        0.94953237       1.74376102       2.05692785       0.00635795      -0.01666382      -0.01395990      -0.00183185      -0.00849005      -0.00538684
H        0.32001978       3.18200801       1.22770422       0.01596638      -0.02300268      -0.03336975       0.00317668      -0.00518237      -0.00438128
N       -0.07360607       2.03540616      -1.21807649      -0.01062865      -0.00732766      -0.00010846      -0.01197382      -0.00075491       0.00015468
H        0.22848434       2.99382292      -1.35102079       0.02562384      -0.07863373       0.02142464       0.02552549      -0.01512233      -0.02261621
H       -1.07262941       2.04217066      -1.05187815      -0.06197290       0.04598411      -0.00856761      -0.00951020       0.04422650       0.02056040
16
Properties=species:S:1:pos:R:3:mp2_forces:R:3:forces:R:3 R1=CN R2=CN R3=CH3 R4=NH2 lg=Cl nu=F rxn-id=1452 mp2_energy=-24951.619493867092 energy=-24951.615369888237 free_energy=-24951.619493867092 pbc="F F F"
C        0.46706093      -0.03814039      -0.04735651      -0.06039832      -0.06163312      -0.00526729      -0.02117132      -0.00682893      -0.00164312
C        0.63986032       1.49754122      -0.05571087       0.02326462       0.00696670      -0.00407405      -0.02015701      -0.01214145      -0.00451521
H        1.71369253       1.61466879      -0.20128203       0.08313642       0.04501635      -0.02635794      -0.01628169      -0.04387696      -0.00349592
Cl      -1.36725255      -0.38758296      -0.15508681      -0.03971099       0.03896021       0.01495427      -0.00202464      -0.01734052       0.00571912
F        2.74376578       0.01771516       0.34845823      -0.00255989       0.02414026       0.06089597       0.00816714      -0.00051659       0.03688630
C        1.04972919      -0.66711198      -1.23006689       0.04415252      -0.02235802      -0.03039670      -0.00686126       0.00617266      -0.00047223
N        1.33420966      -1.20539750      -2.23582733       0.00428483       0.02828946      -0.03496860       0.01970711       0.01780925       0.00099261
C        0.89627757      -0.67941122       1.19831047      -0.01301473      -0.01269259       0.04675115       0.02092298       0.00821621      -0.00794993
N        0.85385159      -1.22134247       2.24504488       0.04600804       0.02043800      -0.03197681       0.02578180       0.01280430      -0.00524874
C        0.25102674       2.09374851       1.29269276      -0.01900627      -0.00940995       0.01035862      -0.00570464      -0.00483457      -0.00331709
H       -0.76927419       1.81939623       1.57532582      -0.04150284       0.02192648       0.03466246      -0.00664980       0.00819206       0.00804440
H        0.94083689       1.75184522       2.06802231       0.00635795      -0.01666382      -0.01395990      -0.00149754      -0.01087010      -0.01002645
H        0.30980676       3.18561438       1.23347161       0.01596638      -0.02300268      -0.03336975       0.00584304      -0.00590672      -0.00755426
N       -0.06016902       2.03541027      -1.21666804      -0.01062865      -0.00732766      -0.00010846      -0.01487193       0.00256106      -0.00348408
H        0.21767112       3.00195689      -1.33978588       0.02562384      -0.07863373       0.02142464       0.03113915      -0.01012165      -0.01771071
H       -1.06045284       2.01294674      -1.06385487      -0.06197290       0.04598411      -0.00856761      -0.01634138       0.05668194       0.01377530
16
Properties=species:S:1:pos:R:3:mp2_forces:R:3:forces:R:3 R1=CN R2=CN R3=CH3 R4=NH2 lg=Cl nu=F rxn-id=1452 mp2_energy=-24951.619493867092 energy=-24951.588568410625 free_energy=-24951.619493867092 pbc="F F F"
C        0.49635533      -0.02893249      -0.04316218      -0.06039832      -0.06163312      -0.00526729      -0.16827306      -0.02003826      -0.01486502
C        0.66696232       1.51459811      -0.04963489       0.02326462       0.00696670      -0.00407405      -0.05456876      -0.02970722      -0.00699306
H        1.73512853       1.67836197      -0.19618148       0.08313642       0.04501635      -0.02635794      -0.02970935      -0.14494430       0.00618246
Cl      -1.36326876      -0.36204393      -0.15821502      -0.03971099       0.03896021       0.01495427       0.06879208      -0.01038103       0.00586786
F        2.73216547       0.01622822       0.29834272      -0.00255989       0.02414026       0.06089597       0.09333687      -0.01910062       0.05537057
C        1.05663564      -0.67542812      -1.22858501       0.04415252      -0.02235802      -0.03039670      -0.00269019       0.02416096       0.02265341
N        1.30173755      -1.22880544      -2.23758678       0.00428483       0.02828946      -0.03496860       0.03407635       0.03330698       0.02750904
C        0.87288606      -0.69094113       1.20967141      -0.01301473      -0.01269259       0.04675115       0.05684679       0.03735756      -0.02962774
N        0.82787190      -1.24115954       2.25184466       0.04600804       0.02043800      -0.03197681       0.04164375       0.03171067      -0.03144298
C        0.25479190       2.09881089       1.29711057      -0.01900627      -0.00940995       0.01035862      -0.01312944      -0.00541218      -0.00472440
H       -0.76397607       1.80459409       1.56150565      -0.04150284       0.02192648       0.03466246      -0.01402903       0.02353220       0.02838035
H        0.93718201       1.76575116       2.08327523       0.00635795      -0.01666382      -0.01395990      -0.00012511      -0.01469991      -0.01973040
H        0.29587804       3.19225657       1.24490436       0.01596638      -0.02300268      -0.03336975       0.00886153      -0.00671534      -0.01064348
N       -0.03925352       2.03084476      -1.21299048      -0.01062865      -0.00732766      -0.00010846      -0.02268629       0.01267129      -0.01332344
H        0.18754802       3.01111500      -1.32540185       0.02562384      -0.07863373       0.02142464       0.03102619       0.00170343      -0.00709636
H       -1.03800393       1.94660676      -1.07921004      -0.06197290       0.04598411      -0.00856761      -0.02937235       0.08655577      -0.00751681
16
Properties=species:S:1:pos:R:3:mp2_forces:R:3:forces:R:3 R1=CN R2=CN R3=CH3 R4=NH2 lg=Cl nu=F rxn-id=1452 mp2_energy=-24951.619493867092 energy=-24951.51677255109 free_energy=-24951.619493867092 pbc="F F F"
C        0.56582027      -0.02095167      -0.03617926      -0.06039832      -0.06163312      -0.00526729      -0.66738793      -0.08137874      -0.06461188
C        0.68894819       1.52679619      -0.04679545       0.02326462       0.00696670      -0.00407405      -0.05807700      -0.03764342      -0.00634947
H        1.74657484       1.73859309      -0.19887899       0.08313642       0.04501635      -0.02635794      -0.01776615      -0.15745536       0.01133092
Cl      -1.39065479      -0.35746631      -0.16020994      -0.03971099       0.03896021       0.01495427       0.33267386       0.04597490       0.01812152
F        2.69431156       0.02336614       0.27270082      -0.00255989       0.02414026       0.06089597       0.21055167      -0.03298287       0.06325516
C        1.05834856      -0.68568852      -1.23690249       0.04415252      -0.02235802      -0.03039670       0.05212284       0.03793517       0.05363515
N        1.28723440      -1.24220341      -2.24853757       0.00428483       0.02828946      -0.03496860       0.02418524       0.03398892       0.04292807
C        0.84946450      -0.70665805       1.22303193      -0.01301473      -0.01269259       0.04675115       0.12889182       0.06085167      -0.04290932
N        0.81213175      -1.25494045       2.26580541       0.04600804       0.02043800      -0.03197681       0.02820689       0.03060049      -0.04780323
C        0.25922445       2.10072440       1.29901427      -0.01900627      -0.00940995       0.01035862      -0.00776931      -0.00431034      -0.00540614
H       -0.75912500       1.79430464       1.54992513      -0.04150284       0.02192648       0.03466246      -0.01076396       0.02581343       0.03077248
H        0.93628922       1.77133563       2.09114865       0.00635795      -0.01666382      -0.01395990      -0.00000887      -0.01144374      -0.01729928
H        0.29108364       3.19466311       1.24948588       0.01596638      -0.02300268      -0.03336975       0.00516330      -0.00430066      -0.00456262
N       -0.03021388       2.02576950      -1.20780444      -0.01062865      -0.00732766      -0.00010846      -0.01371366       0.01245861      -0.01083841
H        0.17759087       3.00998523      -1.32397172       0.02562384      -0.07863373       0.02142464       0.01639648       0.00296348      -0.00291852
H       -1.02638809       1.91422737      -1.07614539      -0.06197290       0.04598411      -0.00856761      -0.02270524       0.07892845      -0.01734445
16
Properties=species:S:1:pos:R:3:mp2_forces:R:3:forces:R:3 R1=CN R2=CN R3=CH3 R4=NH2 lg=Cl nu=F rxn-id=1452 mp2_energy=-24951.619493867092 energy=-24951.4506522002 free_energy=-24951.619493867092 pbc="F F F"
C        0.63506255      -0.01255690      -0.02929984      -0.06039832      -0.06163312      -0.00526729      -0.48169282      -0.05399725      -0.04824856
C        0.69487836       1.53066855      -0.04611117       0.02326462       0.00696670      -0.00407405      -0.01925655      -0.01736924      -0.00256882
H        1.74826892       1.75503804      -0.20006025       0.08313642       0.04501635      -0.02635794      -0.00476899      -0.07662825       0.00699790
Cl      -1.42478265      -0.36197561      -0.16196926      -0.03971099       0.03896021       0.01495427       0.21113306       0.03260245       0.01210331
F        2.67257812       0.02661997       0.26558228      -0.00255989       0.02414026       0.06089597       0.12095000      -0.01965677       0.03276399
C        1.05300486      -0.68966167      -1.24230454       0.04415252      -0.02235802      -0.03039670       0.05752662       0.01973096       0.03016610
N        1.28454095      -1.24563655      -2.25296270       0.00428483       0.02828946      -0.03496860       0.01230268       0.01534116       0.01859950
C        0.83617683      -0.71301769       1.22771151      -0.01301473      -0.01269259       0.04675115       0.10126832       0.03253219      -0.01634627
N        0.80946368      -1.25824912       2.27096272       0.04600804       0.02043800      -0.03197681       0.01399818       0.01205581      -0.02036166
C        0.25981559       2.10108605       1.29957238      -0.01900627      -0.00940995       0.01035862      -0.00193973      -0.00058048      -0.00277599
H       -0.75821877       1.79146170       1.54677599      -0.04150284       0.02192648       0.03466246      -0.00518221       0.01276632       0.01518314
H        0.93607490       1.77244258       2.09293155       0.00635795      -0.01666382      -0.01395990      -0.00058651      -0.00527878      -0.00851796
H        0.29022511       3.19502049       1.25000220       0.01596638      -0.02300268      -0.03336975       0.00136055      -0.00136739      -0.00167545
N       -0.02881299       2.02445628      -1.20675257      -0.01062865      -0.00732766      -0.00010846      -0.00426245       0.00691649      -0.00267060
H        0.17646830       3.00949194      -1.32404817       0.02562384      -0.07863373       0.02142464       0.00953507       0.00133135      -0.00295187
H       -1.02410327       1.90666883      -1.07434327      -0.06197290       0.04598411      -0.00856761      -0.01038521       0.04160144      -0.00969676
16
Properties=species:S:1:pos:R:3:mp2_forces:R:3:forces:R:3 R1=CN R2=CN R3=CH3 R4=NH2 lg=Cl nu=F rxn-id=1452 mp2_energy=-24951.619493867092 energy=-24951.431388891193 free_energy=-24951.619493867092 pbc="F F F"
C        0.71139121      -0.00409979      -0.02138305      -0.06039832      -0.06163312      -0.00526729       0.14444034       0.01365532       0.01706797
C        0.69777135       1.53337990      -0.04570682       0.02326462       0.00696670      -0.00407405       0.00252216       0.00328583       0.00063673
H        1.74874961       1.76736244      -0.20123008       0.08313642       0.04501635      -0.02635794      -0.00167069       0.02370032      -0.00301003
Cl      -1.45756151      -0.36677723      -0.16373374      -0.03971099       0.03896021       0.01495427      -0.04605419      -0.00558009      -0.00162507
F        2.65348474       0.02946242       0.25972542      -0.00255989       0.02414026       0.06089597      -0.03591194       0.00295031      -0.01477553
C        1.04397788      -0.69288557      -1.24683635       0.04415252      -0.02235802      -0.03039670      -0.02000054      -0.00611228      -0.00594638
N        1.28235080      -1.24788357      -2.25589596       0.00428483       0.02828946      -0.03496860      -0.00622697      -0.00226019      -0.00430628
C        0.82023464      -0.71827284       1.23067875      -0.01301473      -0.01269259       0.04675115      -0.03236548      -0.00969151       0.00650955
N        0.80754178      -1.26040299       2.27450949       0.04600804       0.02043800      -0.03197681      -0.00161996      -0.00492678       0.00758973
C        0.25985388       2.10105604       1.29999688      -0.01900627      -0.00940995       0.01035862      -0.00210138      -0.00141380       0.00049739
H       -0.75762868       1.78919801       1.54452103      -0.04150284       0.02192648       0.03466246      -0.00076182      -0.00527945      -0.00259339
H        0.93598831       1.77318365       2.09418716       0.00635795      -0.01666382      -0.01395990      -0.00145098       0.00052559       0.00153708
H        0.28958303       3.19511282       1.25031167       0.01596638      -0.02300268      -0.03336975      -0.00400086      -0.00098257       0.00069206
N       -0.02819040       2.02338409      -1.20646137      -0.01062865      -0.00732766      -0.00010846       0.00021999      -0.00221034      -0.00090629
H        0.17567167       3.00912911      -1.32401277       0.02562384      -0.07863373       0.02142464       0.00352680      -0.00178079      -0.00251340
H       -1.02257783       1.90091041      -1.07298342      -0.06197290       0.04598411      -0.00856761       0.00145552      -0.00387958       0.00114586
16
Properties=species:S:1:pos:R:3:mp2_forces:R:3:forces:R:3 R1=CN R2=CN R3=CH3 R4=NH2 lg=Cl nu=F rxn-id=1452 mp2_energy=-24951.619493867092 energy=-24951.482757539452 free_energy=-24951.619493867092 pbc="F F F"
C        0.79142766       0.00308701      -0.01268248      -0.06039832      -0.06163312      -0.00526729       0.86282637       0.07651729       0.09548832
C        0.69891219       1.53461692      -0.04533380       0.02326462       0.00696670      -0.00407405       0.01087581       0.01282456       0.00392191
H        1.74859384       1.77961495      -0.20290028       0.08313642       0.04501635      -0.02635794      -0.00390464       0.13290824      -0.01835857
Cl      -1.47945246      -0.37032293      -0.16483958      -0.03971099       0.03896021       0.01495427      -0.23119610      -0.03631896      -0.01085323
F        2.63329716       0.03160274       0.25400594      -0.00255989       0.02414026       0.06089597      -0.21736786       0.02150605      -0.06576438
C        1.03098714      -0.69538890      -1.25043091       0.04415252      -0.02235802      -0.03039670      -0.13988770      -0.02802461      -0.03717530
N        1.27936492      -1.24931496      -2.25767923       0.00428483       0.02828946      -0.03496860      -0.03373088      -0.01436981      -0.01921543
C        0.80016999      -0.72274252       1.23210267      -0.01301473      -0.01269259       0.04675115      -0.21495005      -0.04894948       0.01791568
N        0.80521652      -1.26190388       2.27686648       0.04600804       0.02043800      -0.03197681      -0.02226386      -0.01773171       0.02768277
C        0.25952566       2.10044846       1.30026513      -0.01900627      -0.00940995       0.01035862      -0.00560843      -0.00746286       0.00270083
H       -0.75730364       1.78728988       1.54296324      -0.04150284       0.02192648       0.03466246       0.00161715      -0.02185054      -0.01591643
H        0.93587680       1.77373782       2.09529734       0.00635795      -0.01666382      -0.01395990      -0.00279182       0.00517861       0.01131070
H        0.28880426       3.19486892       1.25053260       0.01596638      -0.02300268      -0.03336975      -0.01114200      -0.00355158       0.00248837
N       -0.02811873       2.02176165      -1.20682745      -0.01062865      -0.00732766      -0.00010846       0.00024020      -0.01710194      -0.00477642
H        0.17489058       3.00849045      -1.32377184       0.02562384      -0.07863373       0.02142464      -0.00266895      -0.00777247      -0.00036039
H       -1.02155141       1.89601128      -1.07188098      -0.06197290       0.04598411      -0.00856761       0.00995275      -0.04580079       0.01091158
16
Properties=species:S:1:pos:R:3:mp2_forces:R:3:forces:R:3 R1=CN R2=CN R3=CH3 R4=NH2 lg=Cl nu=F rxn-id=1452 mp2_energy=-24951.619493867092 energy=-24951.6195426604 free_energy=-24951.619493867092 pbc="F F F"
C        0.87234840       0.00885081      -0.00372147      -0.06039832      -0.06163312      -0.00526729       1.79652160       0.12688301       0.20055296
C        0.69968841       1.53508312      -0.04489536       0.02326462       0.00696670      -0.00407405       0.01562436       0.00971254       0.00963150
H        1.74852072       1.79099754      -0.20462170       0.08313642       0.04501635      -0.02635794      -0.00406518       0.25338142      -0.03854658
Cl      -1.49709810      -0.37343033      -0.16572900      -0.03971099       0.03896021       0.01495427      -0.38661036      -0.06726128      -0.01863636
F        2.60538922       0.03264982       0.24777219      -0.00255989       0.02414026       0.06089597      -0.61936122       0.02176378      -0.14246455
C        1.01888912      -0.69699393      -1.25306647       0.04415252      -0.02235802      -0.03039670      -0.26862166      -0.03685797      -0.05691119
N        1.27662334      -1.25022694      -2.25875978       0.00428483       0.02828946      -0.03496860      -0.06249933      -0.01927441      -0.02405305
C        0.78180226      -0.72606665       1.23283371      -0.01301473      -0.01269259       0.04675115      -0.40608493      -0.07460943       0.01886513
N        0.80319722      -1.26296096       2.27843399       0.04600804       0.02043800      -0.03197681      -0.04159683      -0.02502715       0.03721689
C        0.25924428       2.09968152       1.30038560      -0.01900627      -0.00940995       0.01035862      -0.00851193      -0.01801317       0.00244545
H       -0.75709380       1.78580597       1.54184054      -0.04150284       0.02192648       0.03466246       0.00253372      -0.03410190      -0.02408295
H        0.93583791       1.77418747       2.09621882       0.00635795      -0.01666382      -0.01395990      -0.00271616       0.00907970       0.01979324
H        0.28805045       3.19457912       1.25073893       0.01596638      -0.02300268      -0.03336975      -0.01952931      -0.00742350       0.00461267
N       -0.02812631       2.01991140      -1.20734906      -0.01062865      -0.00732766      -0.00010846      -0.00080180      -0.04059490      -0.01240884
H        0.17416598       3.00784042      -1.32344714       0.02562384      -0.07863373       0.02142464      -0.00969733      -0.01535112       0.00408318
H       -1.02079861       1.89194850      -1.07094697      -0.06197290       0.04598411      -0.00856761       0.01541636      -0.08230559       0.01990251
16
Properties=species:S:1:pos:R:3:mp2_forces:R:3:forces:R:3 R1=CN R2=CN R3=CH3 R4=NH2 lg=Cl nu=F rxn-id=1452 mp2_energy=-24951.619493867092 energy=-24951.945606027348 free_energy=-24951.619493867092 pbc="F F F"
C        0.96073854       0.01281828       0.00740497      -0.06039832      -0.06163312      -0.00526729       4.02270950       0.18231158       0.50396464
C        0.70083959       1.53477007      -0.04425453       0.02326462       0.00696670      -0.00407405       0.05054376      -0.01492057       0.02905476
H        1.74869101       1.80010099      -0.20611671       0.08313642       0.04501635      -0.02635794       0.00518541       0.41401083      -0.06824658
Cl      -1.50913437      -0.37580043      -0.16635773      -0.03971099       0.03896021       0.01495427      -0.54106611      -0.10595130      -0.02745007
F        2.54858168       0.03161268       0.23862714      -0.00255989       0.02414026       0.06089597      -2.58918297      -0.04916707      -0.42022307
C        1.01144553      -0.69721150      -1.25449712       0.04415252      -0.02235802      -0.03039670      -0.33748239      -0.01263050      -0.06636463
N        1.27491505      -1.25041911      -2.25883867       0.00428483       0.02828946      -0.03496860      -0.07958460      -0.00647288      -0.00136446
C        0.77052996      -0.72713127       1.23267389      -0.01301473      -0.01269259       0.04675115      -0.50980369      -0.06406676       0.02365848
N        0.80223279      -1.26330055       2.27892486       0.04600804       0.02043800      -0.03197681      -0.04046204      -0.00452834       0.00101063
C        0.25956819       2.09872942       1.30024021      -0.01900627      -0.00940995       0.01035862       0.01251734      -0.04441283      -0.00694850
H       -0.75678190       1.78478766       1.54103411      -0.04150284       0.02192648       0.03466246       0.01201776      -0.04733357      -0.03585255
H        0.93561317       1.77455088       2.09683726       0.00635795      -0.01666382      -0.01395990      -0.01227082       0.01558104       0.02746101
H        0.28753166       3.19420530       1.25086897       0.01596638      -0.02300268      -0.03336975      -0.02635400      -0.01802246       0.00588314
N       -0.02773889       2.01789204      -1.20770007      -0.01062865      -0.00732766      -0.00010846       0.01683714      -0.09111604      -0.01678128
H        0.17360949       3.00713965      -1.32303943       0.02562384      -0.07863373       0.02142464      -0.01852125      -0.03285825       0.01532452
H       -1.02000102       1.88911278      -1.07012030      -0.06197290       0.04598411      -0.00856761       0.03491693      -0.12042288       0.03687395
16
Properties=species:S:1:pos:R:3:mp2_forces:R:3:forces:R:3 R1=CN R2=CN R3=CH3 R4=NH2 lg=Cl nu=F rxn-id=1452 mp2_energy=-24951.619493867092 energy=-24952.311125780983 free_energy=-24951.619493867092 pbc="F F F"
C        1.05010131       0.01673023       0.01635495      -0.06039832      -0.06163312      -0.00526729       1.38707934       0.05627827       0.14251111
C        0.71241767       1.53572103      -0.04242950       0.02326462       0.00696670      -0.00407405       0.17833649       0.01344043       0.02819679
H        1.75309064       1.83127888      -0.21033435       0.08313642       0.04501635      -0.02635794       0.06504426       0.48545655      -0.06581429
Cl      -1.54416563      -0.38300240      -0.16797395      -0.03971099       0.03896021       0.01495427      -0.53974955      -0.11118237      -0.02391949
F        2.51930215       0.03140634       0.23165034      -0.00255989       0.02414026       0.06089597      -0.44990290      -0.00342343      -0.11242772
C        0.99883314      -0.69529667      -1.25581016       0.04415252      -0.02235802      -0.03039670      -0.19832427       0.03127061      -0.01264328
N        1.26869333      -1.25018362      -2.25802341       0.00428483       0.02828946      -0.03496860      -0.09826284       0.00189146       0.00826630
C        0.74654459      -0.72889485       1.23174729      -0.01301473      -0.01269259       0.04675115      -0.36962793      -0.01820306      -0.03040648
N        0.79842209      -1.26294956       2.27824114       0.04600804       0.02043800      -0.03197681      -0.05551481      -0.00451393       0.00742468
C        0.26162599       2.09555899       1.29999045      -0.01900627      -0.00940995       0.01035862       0.02903200      -0.05062952      -0.00414901
H       -0.75500374       1.78056859       1.53782897      -0.04150284       0.02192648       0.03466246       0.02473191      -0.06628631      -0.04910269
H        0.93481217       1.77632234       2.09988665       0.00635795      -0.01666382      -0.01395990      -0.01520663       0.02628846       0.04648965
H        0.28608443       3.19253869       1.25119302       0.01596638      -0.02300268      -0.03336975      -0.02548987      -0.02717926       0.00472695
N       -0.02505881       2.01011238      -1.20865602      -0.01062865      -0.00732766      -0.00010846       0.04058797      -0.12037656      -0.01556528
H        0.17102398       3.00343776      -1.32139061       0.02562384      -0.07863373       0.02142464      -0.03171252      -0.05846952       0.02211650
H       -1.01608283       1.87850877      -1.06658796      -0.06197290       0.04598411      -0.00856761       0.05897935      -0.15436182       0.05429628
16
Properties=species:S:1:pos:R:3:mp2_forces:R:3:forces:R:3 R1=CN R2=CN R3=CH3 R4=NH2 lg=Cl nu=F rxn-id=1452 mp2_energy=-24951.619493867092 energy=-24952.493189287692 free_energy=-24951.619493867092 pbc="F F F"