12
Properties=species:S:1:pos:R:3:mp2_forces:R:3:forces:R:3 R1=H R2=CH3 R3=H R4=H lg=Br nu=Cl rxn-id=494 mp2_energy=-85738.80639684996 energy=-85738.80639684996 free_energy=-85738.80639684996 pbc="F F F"
C        0.58649044      -0.01533088       0.06626646       0.07329806       0.03327864       0.05357261       0.07329806       0.03327864       0.05357261
C        1.11828449       1.40054242       0.01996452      -0.00382968      -0.00446897      -0.00793208      -0.00382968      -0.00446897      -0.00793208
H        2.20753948       1.32125677      -0.00337622       0.02037134       0.00430103      -0.01704523       0.02037134       0.00430103      -0.01704523
Br      -1.39595671       0.01894027      -0.03175809      -0.09112886       0.00767521       0.00701236      -0.09112886       0.00767521       0.00701236
Cl       3.86386709      -0.77047099      -0.93754275      -0.01823089       0.01252852       0.01788439      -0.01823089       0.01252852       0.01788439
H        0.89720249      -0.55792682      -0.82305197       0.04071972      -0.01656916      -0.02486388       0.04071972      -0.01656916      -0.02486388
H        0.79539944       1.97259996       0.89492954      -0.00410808      -0.01911673       0.00508815      -0.00410808      -0.01911673       0.00508815
H        0.79233763       1.92275422      -0.88157376      -0.01530834      -0.01402633       0.00085155      -0.01530834      -0.01402633       0.00085155
C        1.01730601      -0.76661477       1.30687157      -0.00411140      -0.00601645      -0.00621184      -0.00411140      -0.00601645      -0.00621184
H        2.10774558      -0.82071315       1.27297491       0.02093840      -0.01980047      -0.00437879       0.02093840      -0.01980047      -0.00437879
H        0.68801773      -0.25224660       2.21456801      -0.00269533       0.01564833      -0.01263045      -0.00269533       0.01564833      -0.01263045
H        0.62329955      -1.78456729       1.31671962      -0.01591497       0.00656637      -0.01134679      -0.01591497       0.00656637      -0.01134679
12
Properties=species:S:1:pos:R:3:mp2_forces:R:3:forces:R:3 R1=H R2=CH3 R3=H R4=H lg=Br nu=Cl rxn-id=494 mp2_energy=-85738.80639684996 energy=-85738.80672880373 free_energy=-85738.80639684996 pbc="F F F"
C        0.56717022      -0.01691256       0.06102247       0.07329806       0.03327864       0.05357261      -0.00228598      -0.00274965      -0.00465680
C        1.11799982       1.38974091      -0.00270305      -0.00382968      -0.00446897      -0.00793208      -0.00014095      -0.00185431      -0.00226634
H        2.20436747       1.29527632      -0.07876087       0.02037134       0.00430103      -0.01704523      -0.00001531      -0.00536519      -0.00789090
Br      -1.42359406       0.06176134       0.04032889      -0.09112886       0.00767521       0.00701236      -0.00403132       0.00582312       0.00915162
Cl       3.95306918      -0.68583098      -0.77898849      -0.01823089       0.01252852       0.01788439       0.01243478       0.01126913       0.01791453
H        0.83489740      -0.56323451      -0.83972062       0.04071972      -0.01656916      -0.02486388      -0.01107037       0.00062887       0.00056458
H        0.84618890       1.95693163       0.89121546      -0.00410808      -0.01911673       0.00508815       0.00651227      -0.00160205      -0.00063375
H        0.74996109       1.92090772      -0.88246610      -0.01530834      -0.01402633       0.00085155      -0.00300866      -0.00003273      -0.00049740
C        1.01909978      -0.78158065       1.28455527      -0.00411140      -0.00601645      -0.00621184      -0.00050334      -0.00117032      -0.00243564
H        2.10506904      -0.87903402       1.20660102       0.02093840      -0.01980047      -0.00437879      -0.00031971      -0.00425698      -0.00769314
H        0.74830816      -0.24967683       2.20019662      -0.00269533       0.01564833      -0.01263045       0.00570744      -0.00034289      -0.00128835
H        0.57899624      -1.78012524       1.31371125      -0.01591497       0.00656637      -0.01134679      -0.00327882      -0.00034700      -0.00026839
12
Properties=species:S:1:pos:R:3:mp2_forces:R:3:forces:R:3 R1=H R2=CH3 R3=H R4=H lg=Br nu=Cl rxn-id=494 mp2_energy=-85738.80639684996 energy=-85738.80805806057 free_energy=-85738.80639684996 pbc="F F F"
C        0.56280714      -0.01748049       0.06079279       0.07329806       0.03327864       0.05357261      -0.00006142      -0.00834983      -0.01411612
C        1.11885383       1.38674833      -0.00588275      -0.00382968      -0.00446897      -0.00793208      -0.00065213      -0.00099595      -0.00127433
H        2.20433638       1.28783778      -0.08980540       0.02037134       0.00430103      -0.01704523       0.00085369      -0.00563130      -0.00684657
Br      -1.42774137       0.06800823       0.04856821      -0.09112886       0.00767521       0.00701236      -0.00484275       0.00646113       0.01041199
Cl       3.96837294      -0.66832302      -0.76075081      -0.01823089       0.01252852       0.01788439       0.01239015       0.01055704       0.01819993
H        0.82414326      -0.56542949      -0.84192225       0.04071972      -0.01656916      -0.02486388      -0.01409614       0.00500618       0.00743422
H        0.85620189       1.95340038       0.89115231      -0.00410808      -0.01911673       0.00508815       0.00570914       0.00028867      -0.00104605
H        0.74597869       1.92089075      -0.88171567      -0.01530834      -0.01402633       0.00085155      -0.00230614      -0.00040661      -0.00206280
C        1.01786350      -0.78346851       1.28211059      -0.00411140      -0.00601645      -0.00621184      -0.00075074      -0.00064040      -0.00139100
H        2.10308307      -0.88561899       1.19862446       0.02093840      -0.01980047      -0.00437879       0.00086493      -0.00325463      -0.00789009
H        0.75486597      -0.24876744       2.19844651      -0.00269533       0.01564833      -0.01263045       0.00525737      -0.00150443       0.00002932
H        0.57276792      -1.77957439       1.31537384      -0.01591497       0.00656637      -0.01134679      -0.00236596      -0.00152988      -0.00144850
12
Properties=species:S:1:pos:R:3:mp2_forces:R:3:forces:R:3 R1=H R2=CH3 R3=H R4=H lg=Br nu=Cl rxn-id=494 mp2_energy=-85738.80639684996 energy=-85738.80663065788 free_energy=-85738.80639684996 pbc="F F F"
C        0.56807319      -0.01802616       0.06020531       0.07329806       0.03327864       0.05357261      -0.00481756       0.00492566       0.00796873
C        1.11864623       1.38906564      -0.00215894      -0.00382968      -0.00446897      -0.00793208       0.00011532      -0.00294921      -0.00382977
H        2.20488537       1.29450494      -0.08112420       0.02037134       0.00430103      -0.01704523      -0.00121726      -0.00505036      -0.00683909
Br      -1.42283298       0.06007686       0.03576071      -0.09112886       0.00767521       0.00701236      -0.00327839       0.00614800       0.00998619
Cl       3.95243927      -0.68171835      -0.78360971      -0.01823089       0.01252852       0.01788439       0.01217921       0.01057389       0.01811295
H        0.83762030      -0.56421090      -0.83899348       0.04071972      -0.01656916      -0.02486388      -0.00912385      -0.00370827      -0.00683695
H        0.84919786       1.95459674       0.89351434      -0.00410808      -0.01911673       0.00508815       0.00549333      -0.00209038      -0.00226302
H        0.74836519       1.92186469      -0.88000502      -0.01530834      -0.01402633       0.00085155      -0.00160416      -0.00076437      -0.00081217
C        1.01784335      -0.78126563       1.28578444      -0.00411140      -0.00601645      -0.00621184       0.00001374      -0.00197159      -0.00431372
H        2.10369660      -0.88131669       1.20824343       0.02093840      -0.01980047      -0.00437879      -0.00126535      -0.00335064      -0.00738955
H        0.74835769      -0.24671718       2.20026865      -0.00269533       0.01564833      -0.01263045       0.00508576      -0.00144930      -0.00263937
H        0.57524114      -1.77863083       1.31710631      -0.01591497       0.00656637      -0.01134679      -0.00158081      -0.00031343      -0.00114423
12
Properties=species:S:1:pos:R:3:mp2_forces:R:3:forces:R:3 R1=H R2=CH3 R3=H R4=H lg=Br nu=Cl rxn-id=494 mp2_energy=-85738.80639684996 energy=-85738.82438345566 free_energy=-85738.80639684996 pbc="F F F"
C        0.49784307      -0.01569099       0.05922139       0.07329806       0.03327864       0.05357261      -0.00289307       0.00698159       0.01150505
C        1.12101179       1.35670829      -0.05477742      -0.00382968      -0.00446897      -0.00793208       0.00028885      -0.00265300      -0.00231508
H        2.19793821       1.20379621      -0.18049301       0.02037134       0.00430103      -0.01704523      -0.00141672      -0.00555865      -0.00849437
Br      -1.47920448       0.17975948       0.23175336      -0.09112886       0.00767521       0.00701236      -0.00037126      -0.00231828      -0.00436322
Cl       4.15752204      -0.50109379      -0.47177399      -0.01823089       0.01252852       0.01788439       0.00359107       0.00937455       0.01657284
H        0.64281681      -0.57074183      -0.86406638       0.04071972      -0.01656916      -0.02486388      -0.01200816      -0.00361766      -0.00697215
H        0.93041118       1.94569871       0.84623570      -0.00410808      -0.01911673       0.00508815       0.01001163      -0.00279870       0.00134873
H        0.73296383       1.89866656      -0.91927462      -0.01530834      -0.01402633       0.00085155      -0.00344158       0.00209734       0.00326024
C        1.01882223      -0.81258159       1.23325786      -0.00411140      -0.00601645      -0.00621184       0.00044945      -0.00079059      -0.00340329
H        2.09748227      -0.92578943       1.08281524       0.02093840      -0.01980047      -0.00437879      -0.00130363      -0.00431075      -0.00886894
H        0.82617898      -0.28948552       2.17364808      -0.00269533       0.01564833      -0.01263045       0.01003240       0.00164471      -0.00143017
H        0.55774730      -1.80102295       1.27844564      -0.01591497       0.00656637      -0.01134679      -0.00293898       0.00194945       0.00316037
12
Properties=species:S:1:pos:R:3:mp2_forces:R:3:forces:R:3 R1=H R2=CH3 R3=H R4=H lg=Br nu=Cl rxn-id=494 mp2_energy=-85738.80639684996 energy=-85738.77982626125 free_energy=-85738.80639684996 pbc="F F F"
C        0.51470452      -0.01953998       0.05198967       0.07329806       0.03327864       0.05357261      -0.05479418       0.04376563       0.07148753
C        1.11629700       1.36125986      -0.06442401      -0.00382968      -0.00446897      -0.00793208       0.00958491       0.01053953       0.01640110
H        2.20173295       1.24298545      -0.11914702       0.02037134       0.00430103      -0.01704523       0.00457189      -0.03616641      -0.02615593
Br      -1.47596105       0.25079022       0.36167144      -0.09112886       0.00767521       0.00701236       0.18009321      -0.13438264      -0.22259261
Cl       4.17756606      -0.54428109      -0.52376136      -0.01823089       0.01252852       0.01788439      -0.03684212       0.02459939       0.03685868
H        0.70177771      -0.57344490      -0.86840384       0.04071972      -0.01656916      -0.02486388      -0.24301901       0.02645171       0.02771938
H        0.83901634       1.96871036       0.79921216      -0.00410808      -0.01911673       0.00508815       0.07091096       0.04020606       0.02118545
H        0.76988258       1.85924327      -0.97313839      -0.01530834      -0.01402633       0.00085155      -0.00906130       0.01724374       0.02368466
C        1.01693977      -0.82187884       1.22915207      -0.00411140      -0.00601645      -0.00621184       0.01007122       0.00793989       0.01831419
H        2.10384956      -0.89401904       1.13765744       0.02093840      -0.01980047      -0.00437879       0.00638855      -0.00450461      -0.04257340
H        0.74150686      -0.33221576       2.16522402      -0.00269533       0.01564833      -0.01263045       0.06806294      -0.00714764       0.04873487
H        0.59422092      -1.82938640       1.21895966      -0.01591497       0.00656637      -0.01134679      -0.00596706       0.01145535       0.02693608
12
Properties=species:S:1:pos:R:3:mp2_forces:R:3:forces:R:3 R1=H R2=CH3 R3=H R4=H lg=Br nu=Cl rxn-id=494 mp2_energy=-85738.80639684996 energy=-85738.46117836684 free_energy=-85738.80639684996 pbc="F F F"
C        0.58454182      -0.07695902      -0.04163646       0.07329806       0.03327864       0.05357261      -0.03635558       0.01777441       0.02851179
C        1.10314651       1.34524847      -0.08879765      -0.00382968      -0.00446897      -0.00793208       0.00038828       0.00468073       0.00722143
H        2.19500704       1.28717759      -0.09412174       0.02037134       0.00430103      -0.01704523       0.00083385      -0.02133938      -0.02095349
Br      -1.70989597       0.43263695       0.66216322      -0.09112886       0.00767521       0.00701236       0.08385696      -0.05652692      -0.09733060
Cl       4.23511970      -0.56656236      -0.55530472      -0.01823089       0.01252852       0.01788439      -0.00405353       0.01779780       0.02876310
H        1.01392020      -0.60935087      -0.90699839       0.04071972      -0.01656916      -0.02486388      -0.10280578       0.00528925       0.00184252
H        0.75189424       1.91257417       0.77175689      -0.00410808      -0.01911673       0.00508815       0.03895127       0.02048553       0.01569365
H        0.77609036       1.83719335      -1.00380106      -0.01530834      -0.01402633       0.00085155      -0.01249952       0.00966335       0.01351059
C        1.00297688      -0.83369616       1.20197282      -0.00411140      -0.00601645      -0.00621184       0.00125278       0.00318236       0.00816549
H        2.09444472      -0.89391098       1.18709033       0.02093840      -0.01980047      -0.00437879       0.00212089      -0.00753321      -0.02802037
H        0.65727074      -0.32188746       2.09885668      -0.00269533       0.01564833      -0.01263045       0.03830411      -0.00018751       0.02742253
H        0.59701697      -1.84424053       1.18381190      -0.01591497       0.00656637      -0.01134679      -0.00999372       0.00671360       0.01517336
12
Properties=species:S:1:pos:R:3:mp2_forces:R:3:forces:R:3 R1=H R2=CH3 R3=H R4=H lg=Br nu=Cl rxn-id=494 mp2_energy=-85738.80639684996 energy=-85738.52966301727 free_energy=-85738.80639684996 pbc="F F F"
C        0.77860886      -0.16089666      -0.17454768       0.07329806       0.03327864       0.05357261       0.02086647      -0.01145397      -0.01816546
C        1.11379185       1.31549545      -0.13326965      -0.00382968      -0.00446897      -0.00793208      -0.00036857      -0.00520539      -0.00797958
H        2.19505060       1.38186896      -0.01847159       0.02037134       0.00430103      -0.01704523      -0.00117268       0.00926169       0.00374661
Br      -2.10748310       0.70685697       1.13497574      -0.09112886       0.00767521       0.00701236      -0.03719890       0.04012453       0.06749336
Cl       4.23951044      -0.61311335      -0.63244740      -0.01823089       0.01252852       0.01788439       0.00816624       0.00438369       0.00740878
H        1.44419753      -0.62390730      -0.90063362       0.04071972      -0.01656916      -0.02486388       0.04709693      -0.00371949      -0.00282274
H        0.58720313       1.79489967       0.69019188      -0.00410808      -0.01911673       0.00508815      -0.01896675      -0.01645601      -0.01081307
H        0.82678752       1.79139649      -1.06757357      -0.01530834      -0.01402633       0.00085155       0.00222730      -0.00629445      -0.00922910
C        1.00792937      -0.85458321       1.15253575      -0.00411140      -0.00601645      -0.00621184      -0.00095643      -0.00427554      -0.00862621
H        2.08643286      -0.87428803       1.30544943       0.02093840      -0.01980047      -0.00437879      -0.00218187      -0.00101279       0.01004061
H        0.49292019      -0.31991320       1.94837543      -0.00269533       0.01564833      -0.01263045      -0.01912488      -0.00033377      -0.02050302
H        0.63658397      -1.87559265       1.11040713      -0.01591497       0.00656637      -0.01134679       0.00161312      -0.00501850      -0.01055018
12
Properties=species:S:1:pos:R:3:mp2_forces:R:3:forces:R:3 R1=H R2=CH3 R3=H R4=H lg=Br nu=Cl rxn-id=494 mp2_energy=-85738.80639684996 energy=-85738.64134698598 free_energy=-85738.80639684996 pbc="F F F"
C        0.98187125      -0.25068909      -0.30957119       0.07329806       0.03327864       0.05357261       0.01901611      -0.00903026      -0.01361669
C        1.09777763       1.25588722      -0.22330962      -0.00382968      -0.00446897      -0.00793208      -0.00117314      -0.00599316      -0.00930568
H        2.09378761       1.47637677       0.14678515       0.02037134       0.00430103      -0.01704523      -0.00758962       0.00842700       0.01136857
Br      -2.34564263       1.15871653       1.86796183      -0.09112886       0.00767521       0.00701236      -0.02680016       0.04511500       0.07177922
Cl       4.32267835      -0.61192142      -0.62932361      -0.01823089       0.01252852       0.01788439       0.00982428       0.00364089       0.00644750
H        1.84385519      -0.62055552      -0.86433852       0.04071972      -0.01656916      -0.02486388       0.03731803      -0.00049870       0.00188071
H        0.32114684       1.63762499       0.45504065      -0.00410808      -0.01911673       0.00508815      -0.02284938      -0.01538746      -0.02000481
H        0.98307008       1.70835321      -1.20352437      -0.01530834      -0.01402633       0.00085155       0.01112149      -0.00810006      -0.01317892
C        0.99287978      -0.90723078       1.05418166      -0.00411140      -0.00601645      -0.00621184      -0.00086917      -0.00573582      -0.01000795
H        1.98703675      -0.76580844       1.46572756       0.02093840      -0.01980047      -0.00437879      -0.00737220       0.00664259       0.01268570
H        0.22339449      -0.44007562       1.68492465      -0.00269533       0.01564833      -0.01263045      -0.02292892      -0.00977721      -0.02413853
H        0.79967788      -1.97245470       0.97043766      -0.01591497       0.00656637      -0.01134679       0.01230269      -0.00930281      -0.01390915
12
Properties=species:S:1:pos:R:3:mp2_forces:R:3:forces:R:3 R1=H R2=CH3 R3=H R4=H lg=Br nu=Cl rxn-id=494 mp2_energy=-85738.80639684996 energy=-85738.67057936215 free_energy=-85738.80639684996 pbc="F F F"
C        1.20468006      -0.23346415      -0.25612560       0.07329806       0.03327864       0.05357261       0.00143406      -0.00024442      -0.00032189
C        1.02715102       1.26474311      -0.20061253      -0.00382968      -0.00446897      -0.00793208      -0.00102689      -0.00032577      -0.00023198
H        1.79061581       1.66767938       0.46050517       0.02037134       0.00430103      -0.01704523      -0.00039656       0.00212671       0.00044871
Br      -2.13859118       1.24110326       1.97894872      -0.09112886       0.00767521       0.00701236       0.00504605       0.00025597       0.00080232
Cl       4.47530131      -0.98542968      -1.27686922      -0.01823089       0.01252852       0.01788439       0.00027653      -0.00000389       0.00021826
H        2.22119816      -0.47326354      -0.58169930       0.04071972      -0.01656916      -0.02486388       0.00325344       0.00063089       0.00127054
H        0.04060165       1.49694311       0.21490000      -0.00410808      -0.01911673       0.00508815      -0.00226688      -0.00113029       0.00013540
H        1.15145601       1.70341262      -1.18776017      -0.01530834      -0.01402633       0.00085155      -0.00139700      -0.00080932      -0.00137411
C        0.92484050      -0.89515912       1.07167121      -0.00411140      -0.00601645      -0.00621184      -0.00098417       0.00003743      -0.00046452
H        1.68493718      -0.56604892       1.77611904       0.02093840      -0.01980047      -0.00437879      -0.00047501      -0.00056093       0.00204452
H       -0.05745693      -0.57486564       1.43550252      -0.00269533       0.01564833      -0.01263045      -0.00216648       0.00078090      -0.00102301
H        0.97679964      -1.97742729       0.98041200      -0.01591497       0.00656637      -0.01134679      -0.00129709      -0.00075730      -0.00150423
12
Properties=species:S:1:pos:R:3:mp2_forces:R:3:forces:R:3 R1=H R2=CH3 R3=H R4=H lg=Br nu=Cl rxn-id=494 mp2_energy=-85738.80639684996 energy=-85738.79297567136 free_energy=-85738.80639684996 pbc="F F F"
C        1.41582417      -0.14045530      -0.07949900       0.07329806       0.03327864       0.05357261       0.03736981       0.01697180       0.03191023
C        1.07347461       1.32461901      -0.10521420      -0.00382968      -0.00446897      -0.00793208       0.00699912       0.01059391       0.01540104
H        1.67988752       1.84051054       0.64322457       0.02037134       0.00430103      -0.01704523      -0.01537904       0.03209754       0.02593445
Br      -2.12177161       1.15134525       1.82459660      -0.09112886       0.00767521       0.00701236       0.00841907      -0.01355377      -0.02224084
Cl       5.39683597      -1.23621139      -1.63775788      -0.01823089       0.01252852       0.01788439       0.16995689      -0.03879075      -0.05293695
H        1.02505189      -0.63497529      -0.95039699       0.04071972      -0.01656916      -0.02486388      -0.21852408      -0.03217897      -0.07203716
H        0.02675256       1.44371253       0.17658142      -0.00410808      -0.01911673       0.00508815      -0.00177975      -0.00719391      -0.00210074
H        1.25621509       1.75098220      -1.08820271      -0.01530834      -0.01402633       0.00085155       0.01196774       0.00577558       0.01389213
C        0.96979510      -0.84481660       1.17316364      -0.00411140      -0.00601645      -0.00621184       0.00683745       0.00782580       0.01707731
H        1.56864575      -0.48259195       2.01233129       0.02093840      -0.01980047      -0.00437879      -0.01651684       0.00822213       0.04005277
H       -0.07014152      -0.58219888       1.37006842      -0.00269533       0.01564833      -0.01263045      -0.00139063       0.00177114      -0.00731403
H        1.08096368      -1.92169697       1.07609669      -0.01591497       0.00656637      -0.01134679       0.01204026       0.00845951       0.01236179
12
Properties=species:S:1:pos:R:3:mp2_forces:R:3:forces:R:3 R1=H R2=CH3 R3=H R4=H lg=Br nu=Cl rxn-id=494 mp2_energy=-85738.80639684996 energy=-85738.8533778529 free_energy=-85738.80639684996 pbc="F F F"
C        1.08821556      -0.16864602      -0.15353008       0.07329806       0.03327864       0.05357261       0.00221615      -0.00112253      -0.00172392
C        1.03996036       1.33806073      -0.07833173      -0.00382968      -0.00446897      -0.00793208       0.00019181      -0.00054807       0.00042915
H        1.83002278       1.70060143       0.58108789       0.02037134       0.00430103      -0.01704523       0.00216958      -0.00087664      -0.00050020
Br      -2.22555059       1.04508042       1.63749088      -0.09112886       0.00767521       0.00701236      -0.00722422       0.00115736       0.00134664
Cl       6.46820404      -1.39280955      -1.82045388      -0.01823089       0.01252852       0.01788439      -0.00000000      -0.00000000      -0.00000000
H        0.27383731      -0.50757883      -0.79448110       0.04071972      -0.01656916      -0.02486388       0.00200894      -0.00219186      -0.00357658
H        0.06969739       1.60855592       0.34273469      -0.00410808      -0.01911673       0.00508815       0.00111993      -0.00200963       0.00306194
H        1.15132034       1.77765683      -1.06627408      -0.01530834      -0.01402633       0.00085155      -0.00217313       0.00120999       0.00093438
C        0.93662699      -0.82541357       1.19696061      -0.00411140      -0.00601645      -0.00621184       0.00026053       0.00061215      -0.00026425
H        1.72568919      -0.47980024       1.86658774       0.02093840      -0.01980047      -0.00437879       0.00224777      -0.00019452      -0.00094733
H       -0.03205898      -0.51950631       1.59688885      -0.00269533       0.01564833      -0.01263045       0.00141817       0.00358214      -0.00018311
H        0.97556882      -1.90797766       1.10631204      -0.01591497       0.00656637      -0.01134679      -0.00223553       0.00038160       0.00142328
12
Properties=species:S:1:pos:R:3:mp2_forces:R:3:forces:R:3 R1=H R2=CH3 R3=H R4=H lg=Br nu=Cl rxn-id=494 mp2_energy=-85738.80639684996 energy=-85738.83297536314 free_energy=-85738.80639684996 pbc="F F F"
C        0.63506720      -0.22010130      -0.27509712       0.07329806       0.03327864       0.05357261       0.00345567      -0.00387117      -0.00631402
C        1.07657634       1.22467696      -0.27443102      -0.00382968      -0.00446897      -0.00793208      -0.00286174      -0.00022526       0.00085741
H        2.14232548       1.29429461      -0.06009102       0.02037134       0.00430103      -0.01704523      -0.00105967       0.00395278       0.00762927
Br      -1.96597703       1.24133544       1.98429181      -0.09112886       0.00767521       0.00701236       0.01261552       0.00708928       0.01326703
Cl       6.41749940      -0.78533857      -0.80027057      -0.01823089       0.01252852       0.01788439       0.00787117      -0.00197145      -0.00241526
H       -0.45165021      -0.23126629      -0.38256269       0.04071972      -0.01656916      -0.02486388       0.00067672      -0.01174040      -0.01972025
H        0.49691805       1.72830020       0.49866364      -0.00410808      -0.01911673       0.00508815      -0.00912995      -0.00369953       0.00263771
H        0.86295721       1.68857738      -1.23462653      -0.01530834      -0.01402633       0.00085155       0.00026121       0.00025077      -0.00060370
C        0.97222488      -0.94468269       1.00693145      -0.00411140      -0.00601645      -0.00621184      -0.00270087       0.00112314       0.00007649
H        2.03840470      -0.86640666       1.21631298       0.02093840      -0.01980047      -0.00437879      -0.00093018       0.00480405       0.00701854
H        0.39104834      -0.46940852       1.79665618      -0.00269533       0.01564833      -0.01263045      -0.00839694       0.00486532      -0.00225242
H        0.68613887      -1.99175743       0.93921475      -0.01591497       0.00656637      -0.01134679       0.00019905      -0.00057755      -0.00018079
12
Properties=species:S:1:pos:R:3:mp2_forces:R:3:forces:R:3 R1=H R2=CH3 R3=H R4=H lg=Br nu=Cl rxn-id=494 mp2_energy=-85738.80639684996 energy=-85738.56921972506 free_energy=-85738.80639684996 pbc="F F F"
C        1.04262062      -0.25913837      -0.31202948       0.07329806       0.03327864       0.05357261      -0.01112598      -0.00044379      -0.00163585
C        1.30558791       1.22998000      -0.24282451      -0.00382968      -0.00446897      -0.00793208      -0.00455434      -0.00151319      -0.00458748
H        2.27137818       1.41727302       0.22313717       0.02037134       0.00430103      -0.01704523       0.00227068      -0.00653699      -0.01764641
Br      -1.90936471       1.16739646       1.87003784      -0.09112886       0.00767521       0.00701236       0.00454956       0.00513762       0.00911143
Cl       3.89945232      -0.61789831      -0.69347236      -0.01823089       0.01252852       0.01788439       0.04771508       0.01421900       0.02786632
H        0.01248560      -0.40318350      -0.63813901       0.04071972      -0.01656916      -0.02486388      -0.01330357       0.00363873       0.00508422
H        0.49498725       1.65929843       0.35317009      -0.00410808      -0.01911673       0.00508815       0.00455380       0.00201943       0.00474461
H        1.29481231       1.66645924      -1.23782815      -0.01530834      -0.01402633       0.00085155      -0.01599043      -0.00200683      -0.00467148
C        1.20402998      -0.93343898       1.03357871      -0.00411140      -0.00601645      -0.00621184      -0.00464432      -0.00295708      -0.00372065
H        2.17294545      -0.68386135       1.46237358       0.02093840      -0.01980047      -0.00437879       0.00194711      -0.01239879      -0.01412388
H        0.39093692      -0.56248074       1.66434693      -0.00269533       0.01564833      -0.01263045       0.00454346       0.00283861       0.00423361
H        1.12166139      -2.01218275       0.93264103      -0.01591497       0.00656637      -0.01134679      -0.01596106      -0.00199672      -0.00465445
12
Properties=species:S:1:pos:R:3:mp2_forces:R:3:forces:R:3 R1=H R2=CH3 R3=H R4=H lg=Br nu=Cl rxn-id=494 mp2_energy=-85738.80639684996 energy=-85738.89609920308 free_energy=-85738.80639684996 pbc="F F F"
C        1.32295268      -0.24456683      -0.26507552       0.07329806       0.03327864       0.05357261       0.29582542       0.02008139       0.05710514
C        1.33756692       1.26396048      -0.20386792      -0.00382968      -0.00446897      -0.00793208       0.03200780       0.03019370       0.03781158
H        2.25277695       1.57625824       0.29903178       0.02037134       0.00430103      -0.01704523      -0.01933323       0.16888915       0.07140799
Br      -1.86457272       1.15274582       1.84873774      -0.09112886       0.00767521       0.00701236       0.05177607      -0.01304642      -0.01792515