15
Properties=species:S:1:pos:R:3:mp2_forces:R:3:forces:R:3 R1=NO2 R2=H R3=NO2 R4=NH2 lg=F nu=F rxn-id=905 mp2_energy=-20188.49215346677 energy=-20188.492163814553 free_energy=-20188.492163814553 pbc="F F F"
C        0.41044438      -0.01718359      -0.08103606      -0.03985401       0.00815558      -0.01648757      -0.03987171       0.00814104      -0.01646764
C        0.89833494       1.41247617      -0.03969617       0.03388732      -0.01409394      -0.04209565       0.03387786      -0.01407872      -0.04209254
H        1.97742184       1.27336255       0.15586294       0.04810976       0.01200075       0.01496252       0.04811237       0.01199287       0.01496312
F       -0.98805918      -0.00782319      -0.23915633       0.04890087       0.00343827      -0.02334605       0.04890495       0.00344161      -0.02335176
F        2.78557171      -0.26625598       0.21296223       0.00225228       0.02632560       0.01344550       0.00225227       0.02633488       0.01344601
H        0.68546997      -0.54218898       0.82051755      -0.03966217       0.01424542      -0.03464145      -0.03965969       0.01424614      -0.03463713
N        0.89472561      -0.85728877      -1.21890318       0.00167302      -0.04114501       0.01003931       0.00170154      -0.04104861       0.00996733
O        1.20399735      -0.33403656      -2.28050881       0.00162799       0.01565373      -0.00579139       0.00162625       0.01565981      -0.00578508
O        0.78582630      -2.06653351      -1.02970695       0.02207917      -0.01462849       0.02479213       0.02205397      -0.01471631       0.02484192
N        0.28193216       1.97423737       1.26604579       0.01161348       0.00357871       0.00712259       0.01164536       0.00350168       0.00717838
O       -0.32877011       3.04400705       1.20288980       0.03278355       0.01452498       0.01571688       0.03276348       0.01456531       0.01569596
O        0.48431470       1.35630263       2.30710746      -0.04746232      -0.01901075       0.00286857      -0.04746093      -0.01899047       0.00283698
N        0.55706205       2.20676792      -1.16290135      -0.03887942      -0.02193094      -0.00849192      -0.03888226      -0.02192754      -0.00851353
H        0.62954009       3.18495837      -0.91982282       0.03453284      -0.01353113      -0.02042783       0.03454139      -0.01353651      -0.02042953
H       -0.39400014       2.02293883      -1.45272694      -0.07160237       0.02641722       0.06233436      -0.07160487       0.02641483       0.06234751
15
Properties=species:S:1:pos:R:3:mp2_forces:R:3:forces:R:3 R1=NO2 R2=H R3=NO2 R4=NH2 lg=F nu=F rxn-id=905 mp2_energy=-20188.49215346677 energy=-20188.57043508907 free_energy=-20188.492163814553 pbc="F F F"
C        0.40447531      -0.01782150      -0.09629098      -0.03985401       0.00815558      -0.01648757      -0.01895638      -0.01019981      -0.00116933
C        0.88854818       1.41164705      -0.05799593       0.03388732      -0.01409394      -0.04209565      -0.02209795      -0.00928414      -0.00781044
H        1.97424079       1.29125197       0.09696429       0.04810976       0.01200075       0.01496252      -0.01969969      -0.02655619      -0.02185759
F       -0.98577142      -0.00411781      -0.30190081       0.04890087       0.00343827      -0.02334605      -0.01514273      -0.03114939      -0.00961948
F        2.76782122      -0.26655483       0.27475945       0.00225228       0.02632560       0.01344550      -0.00014961       0.02395661       0.01521290
H        0.63812865      -0.53663836       0.81894270      -0.03966217       0.01424542      -0.03464145      -0.01570783      -0.00566047       0.00183516
N        0.93179271      -0.86011761      -1.21099921       0.00167302      -0.04114501       0.01003931       0.01048072      -0.00023111       0.00546615
O        1.34037831      -0.33700440      -2.24009996       0.00162799       0.01565373      -0.00579139       0.03195872       0.01053776       0.01962032
O        0.76381134      -2.06587459      -1.04501362       0.02207917      -0.01462849       0.02479213       0.01938715      -0.00296604      -0.00592437
N        0.30866759       1.96854753       1.26963818       0.01161348       0.00357871       0.00712259       0.00824787       0.00107256      -0.00085473
O       -0.28425026       3.04862943       1.22101747       0.03278355       0.01452498       0.01571688       0.03172342       0.01485953       0.00913213
O        0.49905153       1.32830784       2.29935709      -0.04746232      -0.01901075       0.00286857       0.01310564      -0.00072367      -0.00304282
N        0.46867029       2.17636091      -1.17087095      -0.03887942      -0.02193094      -0.00849192      -0.02335150      -0.00089163      -0.00232514
H        0.70094251       3.14765636      -1.03581036       0.03453284      -0.01353113      -0.02042783       0.02961221      -0.00999774      -0.01692834
H       -0.53269508       2.09946833      -1.28077018      -0.07160237       0.02641722       0.06233436      -0.02941006       0.04723375       0.01826557
15
Properties=species:S:1:pos:R:3:mp2_forces:R:3:forces:R:3 R1=NO2 R2=H R3=NO2 R4=NH2 lg=F nu=F rxn-id=905 mp2_energy=-20188.49215346677 energy=-20188.563461400598 free_energy=-20188.492163814553 pbc="F F F"
C        0.40959425      -0.01265448      -0.09600837      -0.03985401       0.00815558      -0.01648757      -0.02204716      -0.00950356      -0.00271056
C        0.89641977       1.41689281      -0.05548813       0.03388732      -0.01409394      -0.04209565      -0.02267510      -0.01009949      -0.00925151
H        1.97921018       1.30695087       0.10347388       0.04810976       0.01200075       0.01496252      -0.01820957      -0.04405046      -0.02640818
F       -0.98115495       0.01233220      -0.30868663       0.04890087       0.00343827      -0.02334605      -0.01861661      -0.03788023      -0.00502215
F        2.76097806      -0.27890914       0.26826315       0.00225228       0.02632560       0.01344550       0.00157605       0.02077220       0.01738566
H        0.63201945      -0.53368015       0.82069982      -0.03966217       0.01424542      -0.03464145      -0.00899019      -0.00314250      -0.00182320
N        0.93043943      -0.86024648      -1.20954191       0.00167302      -0.04114501       0.01003931       0.01094631       0.00181127       0.00511087
O        1.34315488      -0.34079269      -2.23873947       0.00162799       0.01565373      -0.00579139       0.03258802       0.01085355       0.01866195
O        0.74814101      -2.06430560      -1.04525168       0.02207917      -0.01462849       0.02479213       0.02444160      -0.00106267      -0.00290910
N        0.31266564       1.96833573       1.27428371       0.01161348       0.00357871       0.00712259       0.00720394       0.00302711      -0.00395851
O       -0.29190398       3.04167339       1.22820565       0.03278355       0.01452498       0.01571688       0.02841634       0.01626362       0.00353491
O        0.51415891       1.32932713       2.30280209      -0.04746232      -0.01901075       0.00286857       0.00826841       0.00283385      -0.00447265
N        0.47700082       2.17877538      -1.17026229      -0.03887942      -0.02193094      -0.00849192      -0.02267500       0.00170199      -0.00228010
H        0.67014666       3.15620733      -1.02157203       0.03453284      -0.01353113      -0.02042783       0.03240500      -0.00559182      -0.01423609
H       -0.51705846       2.06383400      -1.31125062      -0.07160237       0.02641722       0.06233436      -0.03263205       0.05406713       0.02837867
15
Properties=species:S:1:pos:R:3:mp2_forces:R:3:forces:R:3 R1=NO2 R2=H R3=NO2 R4=NH2 lg=F nu=F rxn-id=905 mp2_energy=-20188.49215346677 energy=-20188.55233963816 free_energy=-20188.492163814553 pbc="F F F"
C        0.42606378      -0.00992232      -0.09374949      -0.03985401       0.00815558      -0.01648757      -0.03178166      -0.00680073      -0.00463114
C        0.90621737       1.42342788      -0.05133053       0.03388732      -0.01409394      -0.04209565      -0.02569252      -0.01108734      -0.00934827
H        1.98508489       1.34981365       0.11303154       0.04810976       0.01200075       0.01496252      -0.01869284      -0.07817776      -0.02956769
F       -0.96566724       0.02805669      -0.31338635       0.04890087       0.00343827      -0.02334605      -0.02951931      -0.04271902       0.00279631
F        2.74455168      -0.32070478       0.23685694       0.00225228       0.02632560       0.01344550       0.01593452       0.03382158       0.02754517
H        0.63534730      -0.53494731       0.82356651      -0.03966217       0.01424542      -0.03464145      -0.00692286       0.00530548      -0.00404880
N        0.93479228      -0.86596593      -1.20725324       0.00167302      -0.04114501       0.01003931       0.00739796       0.00724029       0.00294208
O        1.34487582      -0.35216251      -2.23986064       0.00162799       0.01565373      -0.00579139       0.03350988       0.01580152       0.01662446
O        0.73427704      -2.06740034      -1.04286065       0.02207917      -0.01462849       0.02479213       0.02924818       0.00356875      -0.00077991
N        0.30850068       1.97273214       1.27783425       0.01161348       0.00357871       0.00712259       0.00751126       0.00123121      -0.00636489
O       -0.30245916       3.04202496       1.22815247       0.03278355       0.01452498       0.01571688       0.02757526       0.01456494       0.00131049
O        0.50866663       1.33462740       2.30677263      -0.04746232      -0.01901075       0.00286857       0.00997348       0.00161118      -0.00631508
N        0.48330363       2.18214290      -1.16674474      -0.03887942      -0.02193094      -0.00849192      -0.01943098       0.00275480      -0.00412342
H        0.64480521       3.16328329      -1.00518120       0.03453284      -0.01353113      -0.02042783       0.03436192      -0.00324225      -0.01491678
H       -0.50454824       2.03873459      -1.32492036      -0.07160237       0.02641722       0.06233436      -0.03347231       0.05612735       0.02887746
15
Properties=species:S:1:pos:R:3:mp2_forces:R:3:forces:R:3 R1=NO2 R2=H R3=NO2 R4=NH2 lg=F nu=F rxn-id=905 mp2_energy=-20188.49215346677 energy=-20188.534313422282 free_energy=-20188.492163814553 pbc="F F F"
C        0.45109026      -0.00544018      -0.09209632      -0.03985401       0.00815558      -0.01648757      -0.05354164      -0.00647836      -0.00704096
C        0.92326603       1.43138322      -0.04647813       0.03388732      -0.01409394      -0.04209565      -0.03672226      -0.01509718      -0.00960081
H        1.99942834       1.40732602       0.12803886       0.04810976       0.01200075       0.01496252      -0.02936871      -0.12745890      -0.03326819
F       -0.94315576       0.05265927      -0.31409586       0.04890087       0.00343827      -0.02334605      -0.04644886      -0.05473018       0.01042947
F        2.72780637      -0.35793892       0.22613144       0.00225228       0.02632560       0.01344550       0.04098637       0.04393167       0.02093718
H        0.64613873      -0.53710961       0.82435367      -0.03966217       0.01424542      -0.03464145      -0.00127669       0.01186807      -0.00813013
N        0.93365549      -0.87074755      -1.21189264       0.00167302      -0.04114501       0.01003931       0.00602774       0.01190598       0.00712116
O        1.32449418      -0.36458805      -2.25555637       0.00162799       0.01565373      -0.00579139       0.04557397       0.02441949       0.02670352
O        0.72044167      -2.06928495      -1.04180965       0.02207917      -0.01462849       0.02479213       0.03640089       0.00530020       0.00356167
N        0.30149759       1.97315180       1.27946060       0.01161348       0.00357871       0.00712259       0.00778667       0.00355294      -0.00596213
O       -0.31837723       3.03642761       1.22304791       0.03278355       0.01452498       0.01571688       0.02875412       0.01808800       0.00454026
O        0.49174985       1.33273327       2.30853131      -0.04746232      -0.01901075       0.00286857       0.01648847       0.00685401      -0.00555550
N        0.49008473       2.17886680      -1.16410599      -0.03887942      -0.02193094      -0.00849192      -0.01898941       0.00869872      -0.00450030
H        0.63086603       3.16304252      -1.00389435       0.03453284      -0.01353113      -0.02042783       0.03640712       0.00286281      -0.00957027
H       -0.49517462       2.01325907      -1.31870732      -0.07160237       0.02641722       0.06233436      -0.03207776       0.06628275       0.01033503
15
Properties=species:S:1:pos:R:3:mp2_forces:R:3:forces:R:3 R1=NO2 R2=H R3=NO2 R4=NH2 lg=F nu=F rxn-id=905 mp2_energy=-20188.49215346677 energy=-20188.511853012686 free_energy=-20188.492163814553 pbc="F F F"
C        0.47287767      -0.00256927      -0.08917485      -0.03985401       0.00815558      -0.01648757      -0.08528651       0.00013585      -0.01630081
C        0.94019696       1.43813428      -0.04263558       0.03388732      -0.01409394      -0.04209565      -0.05218550      -0.02017832      -0.01290493
H        2.01288685       1.46138768       0.13898811       0.04810976       0.01200075       0.01496252      -0.03580572      -0.17586445      -0.03190137
F       -0.92269180       0.07716367      -0.31984449       0.04890087       0.00343827      -0.02334605      -0.07368822      -0.06384219       0.01456657
F        2.71029109      -0.37290736       0.22485614       0.00225228       0.02632560       0.01344550       0.07641941       0.03212937       0.01366421
H        0.64272062      -0.54197414       0.82892751      -0.03966217       0.01424542      -0.03464145       0.02258283       0.02560576      -0.02528910
N        0.92996351      -0.87545614      -1.21628026       0.00167302      -0.04114501       0.01003931       0.01036424       0.02087162       0.01742876
O        1.31024028      -0.37215618      -2.26502980       0.00162799       0.01565373      -0.00579139       0.05694995       0.02420813       0.03428905
O        0.70076869      -2.07107432      -1.04644512       0.02207917      -0.01462849       0.02479213       0.04617563       0.01140249       0.01294772
N        0.30046425       1.97074834       1.28223005       0.01161348       0.00357871       0.00712259       0.00766349       0.00882006      -0.00514121
O       -0.32908934       3.02727315       1.22224538       0.03278355       0.01452498       0.01571688       0.02615334       0.02362345       0.00754861
O        0.48873624       1.32845355       2.31016186      -0.04746232      -0.01901075       0.00286857       0.01670529       0.01414559      -0.00125901
N        0.49649680       2.17400883      -1.16270329      -0.03887942      -0.02193094      -0.00849192      -0.02014007       0.01410461      -0.00334365
H        0.61342611       3.16124263      -1.00304814       0.03453284      -0.01353113      -0.02042783       0.03631472       0.00703729      -0.00447745
H       -0.48347626       1.98146560      -1.32132035      -0.07160237       0.02641722       0.06233436      -0.03222286       0.07780074       0.00017262
15
Properties=species:S:1:pos:R:3:mp2_forces:R:3:forces:R:3 R1=NO2 R2=H R3=NO2 R4=NH2 lg=F nu=F rxn-id=905 mp2_energy=-20188.49215346677 energy=-20188.48149758102 free_energy=-20188.492163814553 pbc="F F F"
C        0.49850055      -0.00414104      -0.08456406      -0.03985401       0.00815558      -0.01648757      -0.14422051       0.01724751      -0.02762431
C        0.95564667       1.44372562      -0.03988027       0.03388732      -0.01409394      -0.04209565      -0.06181957      -0.02469704      -0.00960040
H        2.02281216       1.52079630       0.14932408       0.04810976       0.01200075       0.01496252      -0.03365556      -0.21683426      -0.03166678
F       -0.89832989       0.09539825      -0.32683600       0.04890087       0.00343827      -0.02334605      -0.11952927      -0.06434577       0.01281433
F        2.68275590      -0.38255597       0.22013415       0.00225228       0.02632560       0.01344550       0.14713422       0.00973300       0.01170799
H        0.63470148      -0.55140094       0.83628680      -0.03966217       0.01424542      -0.03464145       0.05219054       0.04093563      -0.04333192
N        0.92671119      -0.88307545      -1.22092951       0.00167302      -0.04114501       0.01003931       0.02070232       0.02723991       0.02564389
O        1.29585968      -0.37974980      -2.27329198       0.00162799       0.01565373      -0.00579139       0.06616342       0.02173573       0.03841370
O        0.68534214      -2.07637253      -1.05278641       0.02207917      -0.01462849       0.02479213       0.05267014       0.01878790       0.02411021
N        0.29933271       1.96887630       1.28456658       0.01161348       0.00357871       0.00712259       0.00693679       0.01361000      -0.00227712
O       -0.33542273       3.02097816       1.22046768       0.03278355       0.01452498       0.01571688       0.02099684       0.02749291       0.01072037
O        0.48615064       1.32582172       2.31176485      -0.04746232      -0.01901075       0.00286857       0.01370088       0.01873191       0.00292301
N        0.50160278       2.16940300      -1.16145181      -0.03887942      -0.02193094      -0.00849192      -0.02013614       0.01708940       0.00076715
H        0.60175569       3.15858023      -1.00105421       0.03453284      -0.01353113      -0.02042783       0.03471858       0.01028197      -0.00293632
H       -0.47360729       1.95745648      -1.32082272      -0.07160237       0.02641722       0.06233436      -0.03585266       0.08299120      -0.00966380
15
Properties=species:S:1:pos:R:3:mp2_forces:R:3:forces:R:3 R1=NO2 R2=H R3=NO2 R4=NH2 lg=F nu=F rxn-id=905 mp2_energy=-20188.49215346677 energy=-20188.432024158843 free_energy=-20188.492163814553 pbc="F F F"
C        0.54092773      -0.00941961      -0.07651811      -0.03985401       0.00815558      -0.01648757      -0.29345756       0.04329249      -0.04695702
C        0.97298484       1.45086112      -0.03782740       0.03388732      -0.01409394      -0.04209565      -0.06004774      -0.03127445      -0.00269299
H        2.03234375       1.58441110       0.15771324       0.04810976       0.01200075       0.01496252      -0.02285732      -0.22483189      -0.02709611
F       -0.86605206       0.11362322      -0.33177375       0.04890087       0.00343827      -0.02334605      -0.14604362      -0.06010244       0.00061415
F        2.63978336      -0.38597664       0.21928545       0.00225228       0.02632560       0.01344550       0.25618299      -0.02323941       0.00932690
H        0.61909672      -0.56370251       0.84854061      -0.03966217       0.01424542      -0.03464145       0.09490464       0.04176043      -0.05369788
N        0.92186092      -0.89136787      -1.22853383       0.00167302      -0.04114501       0.01003931       0.03770722       0.02478953       0.03406626
O        1.27881754      -0.38710760      -2.28417316       0.00162799       0.01565373      -0.00579139       0.07304967       0.01797468       0.04067512
O        0.67037787      -2.08167671      -1.06122353       0.02207917      -0.01462849       0.02479213       0.05309616       0.01680896       0.03206178
N        0.29784280       1.96499835       1.28487905       0.01161348       0.00357871       0.00712259       0.01275397       0.02488563       0.00741660
O       -0.34006193       3.01374002       1.21722299       0.03278355       0.01452498       0.01571688       0.01270152       0.03022442       0.01443946
O        0.48348356       1.32091014       2.31098438      -0.04746232      -0.01901075       0.00286857       0.00787886       0.02360550       0.01089882
N        0.50607287       2.16398819      -1.16142819      -0.03887942      -0.02193094      -0.00849192      -0.02134943       0.01899234       0.00720297
H        0.59202565       3.15517727      -1.00033794       0.03453284      -0.01353113      -0.02042783       0.03070368       0.01100740      -0.00366003
H       -0.46569195       1.93528185      -1.31588266      -0.07160237       0.02641722       0.06233436      -0.03522303       0.08610680      -0.02259803
15
Properties=species:S:1:pos:R:3:mp2_forces:R:3:forces:R:3 R1=NO2 R2=H R3=NO2 R4=NH2 lg=F nu=F rxn-id=905 mp2_energy=-20188.49215346677 energy=-20188.34834467903 free_energy=-20188.492163814553 pbc="F F F"
C        0.61895115      -0.02073983      -0.06408737      -0.03985401       0.00815558      -0.01648757      -0.51852640       0.07175898      -0.06458953
C        0.98909280       1.45911229      -0.03714324       0.03388732      -0.01409394      -0.04209565      -0.04310195      -0.01280861       0.00566448
H        2.03831306       1.64433700       0.16370994       0.04810976       0.01200075       0.01496252      -0.00503171      -0.16816068      -0.01799989
F       -0.82769658       0.12957120      -0.33288190       0.04890087       0.00343827      -0.02334605       0.01620583      -0.05962011       0.00651821
F        2.57104315      -0.38044936       0.21915747       0.00225228       0.02632560       0.01344550       0.34060071      -0.05035727       0.00782398
H        0.59334895      -0.57485417       0.86218381      -0.03966217       0.01424542      -0.03464145       0.08548201       0.00159711      -0.01364227
N        0.91220347      -0.89830600      -1.23806234       0.00167302      -0.04114501       0.01003931       0.04169484       0.00099511       0.01200143
O        1.26158371      -0.39145671      -2.29444844       0.00162799       0.01565373      -0.00579139       0.06472302       0.00492384       0.02312096
O        0.65563558      -2.08623096      -1.07023334       0.02207917      -0.01462849       0.02479213       0.03825538       0.00688823       0.02262676
N        0.29498980       1.95843733       1.28308909       0.01161348       0.00357871       0.00712259       0.02188234       0.04298937       0.02354653
O       -0.34264215       3.00583195       1.21364995       0.03278355       0.01452498       0.01571688       0.00016560       0.02887165       0.01461338
O        0.48275365       1.31494811       2.30805634      -0.04746232      -0.01901075       0.00286857       0.00177729       0.02143774       0.01938015
N        0.51064564       2.15907896      -1.16361812      -0.03887942      -0.02193094      -0.00849192      -0.02466114       0.00633645       0.01507325
H        0.58331883       3.15226401      -0.99958268       0.03453284      -0.01353113      -0.02042783       0.01582418       0.00530879      -0.00666984
H       -0.45772938       1.91219649      -1.30886201      -0.07160237       0.02641722       0.06233436      -0.03528999       0.09983942      -0.04746761
15
Properties=species:S:1:pos:R:3:mp2_forces:R:3:forces:R:3 R1=NO2 R2=H R3=NO2 R4=NH2 lg=F nu=F rxn-id=905 mp2_energy=-20188.49215346677 energy=-20188.208181394668 free_energy=-20188.492163814553 pbc="F F F"
C        0.70384566      -0.03269430      -0.05369086      -0.03985401       0.00815558      -0.01648757      -2.03597371       0.27586054      -0.34711137
C        0.99585429       1.46104527      -0.03840576       0.03388732      -0.01409394      -0.04209565      -0.00778929      -0.00932500       0.00783058
H        2.03903803       1.67200433       0.16607935       0.04810976       0.01200075       0.01496252      -0.00717448      -0.08599271      -0.01012240
F       -0.83040492       0.13909364      -0.33453439       0.04890087       0.00343827      -0.02334605       1.68453796      -0.30528535       0.36184721
F        2.51454673      -0.37244216       0.21898416       0.00225228       0.02632560       0.01344550       0.28897569      -0.05142071       0.02031822
H        0.57884662      -0.57523416       0.86417037      -0.03966217       0.01424542      -0.03464145      -0.01213072       0.00945261      -0.03423619
N        0.90565283      -0.89853916      -1.24002439       0.00167302      -0.04114501       0.01003931       0.01877366       0.00248635       0.00155141
O        1.25240235      -0.39222034      -2.29797563       0.00162799       0.01565373      -0.00579139       0.04412650       0.00216800       0.00584130
O        0.64916752      -2.08739410      -1.07441494       0.02207917      -0.01462849       0.02479213       0.02791515      -0.00163454       0.01118176
N        0.29183837       1.95154394       1.27935275       0.01161348       0.00357871       0.00712259       0.03076648       0.03958732       0.02999604
O       -0.34215135       3.00138354       1.21145007       0.03278355       0.01452498       0.01571688      -0.00025769       0.01699366       0.01002811
O        0.48334839       1.31177779       2.30497093      -0.04746232      -0.01901075       0.00286857       0.00572408       0.00581920       0.01321022
N        0.51412104       2.15804380      -1.16606298      -0.03887942      -0.02193094      -0.00849192      -0.02189821      -0.02558805       0.01313069
H        0.58043467       3.15140683      -0.99857685       0.03453284      -0.01353113      -0.02042783      -0.00122877      -0.00800051      -0.00500290
H       -0.45272856       1.89596539      -1.30039466      -0.07160237       0.02641722       0.06233436      -0.01436663       0.13487919      -0.07846269
15
Properties=species:S:1:pos:R:3:mp2_forces:R:3:forces:R:3 R1=NO2 R2=H R3=NO2 R4=NH2 lg=F nu=F rxn-id=905 mp2_energy=-20188.49215346677 energy=-20188.119608939072 free_energy=-20188.492163814553 pbc="F F F"
C        0.78069752      -0.04313393      -0.04062836      -0.03985401       0.00815558      -0.01648757       0.19202303      -0.02944549       0.03324110
C        0.99611222       1.46136403      -0.03874456       0.03388732      -0.01409394      -0.04209565      -0.00394752      -0.00018348      -0.00305996
H        2.03927101       1.67523376       0.16631849       0.04810976       0.01200075       0.01496252      -0.00175852       0.01160451      -0.00363155
F       -0.89412363       0.15055090      -0.34834835       0.04890087       0.00343827      -0.02334605      -0.10999200       0.02094401      -0.02914240
F        2.50354704      -0.37055616       0.21845189       0.00225228       0.02632560       0.01344550      -0.04946272       0.00604357       0.00442931
H        0.57919819      -0.57562997       0.86540613      -0.03966217       0.01424542      -0.03464145      -0.01546736      -0.00035643      -0.00321673
N        0.90503956      -0.89862671      -1.24010631       0.00167302      -0.04114501       0.01003931      -0.00623776       0.00088145      -0.00211215
O        1.25106311      -0.39230502      -2.29809738       0.00162799       0.01565373      -0.00579139       0.00317885       0.00056064       0.00103567
O        0.64806871      -2.08735664      -1.07494224       0.02207917      -0.01462849       0.02479213      -0.00618942       0.00092502      -0.00421361
N        0.29075499       1.95011820       1.27823044       0.01161348       0.00357871       0.00712259      -0.00111863      -0.00232386      -0.00164432
O       -0.34201107       3.00080031       1.21112329       0.03278355       0.01452498       0.01571688       0.00361896       0.00045044       0.00069108
O        0.48333390       1.31163734       2.30451375      -0.04746232      -0.01901075       0.00286857       0.00526449       0.00120007      -0.00096281
N        0.51479886       2.15901140      -1.16655131      -0.03887942      -0.02193094      -0.00849192      -0.00273428       0.00069151      -0.00228144
H        0.58042920       3.15171758      -0.99840725       0.03453284      -0.01353113      -0.02042783      -0.00265176      -0.00014525      -0.00009959
H       -0.45236794       1.89091522      -1.29729108      -0.07160237       0.02641722       0.06233436      -0.00452535      -0.01084672       0.01096739
15
Properties=species:S:1:pos:R:3:mp2_forces:R:3:forces:R:3 R1=NO2 R2=H R3=NO2 R4=NH2 lg=F nu=F rxn-id=905 mp2_energy=-20188.49215346677 energy=-20188.177164959063 free_energy=-20188.492163814553 pbc="F F F"
C        0.85315812      -0.05488409      -0.02751107      -0.03985401       0.00815558      -0.01648757       1.12710364      -0.18364433       0.20374609
C        0.99379868       1.46138384      -0.03959855       0.03388732      -0.01409394      -0.04209565      -0.03723465      -0.00029295      -0.01473580
H        2.03836571       1.68147448       0.16623515       0.04810976       0.01200075       0.01496252      -0.01512369       0.09649203      -0.00517025
F       -0.91387725       0.15678641      -0.35392522       0.04890087       0.00343827      -0.02334605      -0.30886737       0.09502477      -0.09073854
F        2.47821007      -0.36665088       0.21774794       0.00225228       0.02632560       0.01344550      -0.39711198       0.05940746      -0.00509906
H        0.56933286      -0.57481411       0.86295824      -0.03966217       0.01424542      -0.03464145      -0.15718246       0.01187430      -0.03996833
N        0.89911309      -0.89753027      -1.24153010       0.00167302      -0.04114501       0.01003931      -0.08984487       0.01664795      -0.02238368
O        1.24803885      -0.39188056      -2.29884453       0.00162799       0.01565373      -0.00579139      -0.03839766       0.00682487      -0.00941168
O        0.64510752      -2.08662150      -1.07550197       0.02207917      -0.01462849       0.02479213      -0.04716913       0.01132080      -0.01146401
N        0.28909005       1.94879995       1.27746281       0.01161348       0.00357871       0.00712259      -0.02359687      -0.01926488      -0.01121351
O       -0.34189967       3.00028620       1.21092397       0.03278355       0.01452498       0.01571688       0.00506290      -0.00614406      -0.00173109