14
Properties=species:S:1:pos:R:3:mp2_forces:R:3:forces:R:3 R1=H R2=CH3 R3=NO2 R4=H lg=Br nu=Br rxn-id=548 mp2_energy=-148797.68343559673 energy=-148797.6834356389 free_energy=-148797.6834356389 pbc="F F F"
C        0.53657693      -0.03653654       0.14005028       0.01098712      -0.00817254      -0.00975513       0.01097824      -0.00814015      -0.00972082
C        1.03924330       1.39056347       0.21606955       0.04341570      -0.01258207      -0.00034730       0.04337331      -0.01257843      -0.00033149
H        2.09325498       1.33241112       0.49452479       0.06079303       0.05849279      -0.03772367       0.06081252       0.05848655      -0.03771956
Br      -1.39015084      -0.04469096      -0.27674569      -0.00385081      -0.01310394      -0.01579738      -0.00384961      -0.01310673      -0.01579606
Br       3.77263041      -0.58647778      -0.89603444      -0.01975164       0.06003689       0.01687124      -0.01975379       0.06003815       0.01687312
H        1.03635882      -0.45778430      -0.73038821      -0.00103293       0.00457566      -0.07341766      -0.00101761       0.00456048      -0.07344370
H        0.93576441       1.90699974      -0.73520938      -0.02317114      -0.03526284      -0.00021969      -0.02317227      -0.03526311      -0.00024589
C        0.83512600      -0.91541665       1.33548056      -0.00812514       0.01743708       0.02495270      -0.00812849       0.01742871       0.02494446
H        1.88915107      -0.77088384       1.57955428       0.00563860      -0.08983849       0.01756845       0.00565380      -0.08982947       0.01757293
H        0.21503336      -0.67578996       2.19760669      -0.00525644       0.04312048       0.02211301      -0.00526576       0.04312584       0.02211955
H        0.69768919      -1.96264561       1.05783123      -0.05315370       0.03461247       0.03715147      -0.05315406       0.03459794       0.03713983
N        0.33867515       2.23465354       1.22130569      -0.00941953       0.03972096      -0.07206354      -0.00946428       0.03969340      -0.07205253
O       -0.22939205       3.25069204       0.81684420       0.00576760      -0.06011743       0.04194627       0.00580459      -0.06011547       0.04194017
O        0.38366341       1.88057329       2.39834248      -0.00284070      -0.03891902       0.04872125      -0.00281660      -0.03889772       0.04871998
14
Properties=species:S:1:pos:R:3:mp2_forces:R:3:forces:R:3 R1=H R2=CH3 R3=NO2 R4=H lg=Br nu=Br rxn-id=548 mp2_energy=-148797.68343559673 energy=-148797.7216199936 free_energy=-148797.6834356389 pbc="F F F"
C        0.53926096      -0.06311901       0.12475779       0.01098712      -0.00817254      -0.00975513      -0.00301433       0.00041432      -0.00077462
C        1.03595907       1.36717809       0.17839163       0.04341570      -0.01258207      -0.00034730      -0.00174710       0.00006137      -0.00139042
H        2.10980939       1.32294069       0.37464994       0.06079303       0.05849279      -0.03772367      -0.00159600      -0.00093148      -0.00192773
Br      -1.38377929      -0.07951069      -0.32825102      -0.00385081      -0.01310394      -0.01579738      -0.00510959       0.00282947       0.00856427
Br       3.87331206      -0.31557132      -0.79518439      -0.01975164       0.06003689       0.01687124       0.00856341      -0.00041030       0.01963469
H        1.04781865      -0.50086116      -0.73277303      -0.00103293       0.00457566      -0.07341766      -0.00829576       0.00071030      -0.00381587
H        0.85720159       1.88018514      -0.76506249      -0.02317114      -0.03526284      -0.00021969      -0.00223506       0.00015926      -0.00114134
C        0.78539573      -0.91630981       1.34973879      -0.00812514       0.01743708       0.02495270       0.00265761      -0.00121139      -0.00314258
H        1.86110896      -0.91043932       1.53216100       0.00563860      -0.08983849       0.01756845       0.00388404      -0.00469447      -0.01124274
H        0.25321584      -0.54434075       2.22329548      -0.00525644       0.04312048       0.02211301       0.01011360       0.00030824       0.00032771
H        0.47683595      -1.94350120       1.14765896      -0.05315370       0.03461247       0.03715147      -0.00215965       0.00002415      -0.00107718
N        0.39253925       2.19749463       1.23181384      -0.00941953       0.03972096      -0.07206354      -0.00054569       0.00069013      -0.00127741
O       -0.21365471       3.20712617       0.87313080       0.00576760      -0.06011743       0.04194627       0.00037875       0.00136526      -0.00118703
O        0.51860068       1.84439609       2.40490470      -0.00284070      -0.03891902       0.04872125      -0.00089423       0.00068514      -0.00154976
14
Properties=species:S:1:pos:R:3:mp2_forces:R:3:forces:R:3 R1=H R2=CH3 R3=NO2 R4=H lg=Br nu=Br rxn-id=548 mp2_energy=-148797.68343559673 energy=-148797.72486300723 free_energy=-148797.6834356389 pbc="F F F"
C        0.52990546      -0.05687619       0.12693682       0.01098712      -0.00817254      -0.00975513      -0.00357725      -0.00083630      -0.00065549
C        1.03172533       1.37218802       0.18915214       0.04341570      -0.01258207      -0.00034730      -0.00223125      -0.00119796      -0.00342935
H        2.09923662       1.32864371       0.41886294       0.06079303       0.05849279      -0.03772367      -0.00085544      -0.00290161      -0.00903314
Br      -1.40815486      -0.05285428      -0.25595239      -0.00385081      -0.01310394      -0.01579738      -0.00469869       0.00000870       0.00462127
Br       3.90035927      -0.36231299      -0.71911201      -0.01975164       0.06003689       0.01687124       0.00860061       0.00941294       0.01633575
H        1.00193537      -0.48457746      -0.75524570      -0.00103293       0.00457566      -0.07341766      -0.00691554      -0.00171836      -0.00196820
H        0.88218393       1.88284272      -0.76001276      -0.02317114      -0.03526284      -0.00021969      -0.00661322      -0.00127263      -0.00276158
C        0.82231328      -0.93047045       1.32712340      -0.00812514       0.01743708       0.02495270      -0.00092890      -0.00059728      -0.00114246
H        1.90954405      -0.97664569       1.42399452       0.00563860      -0.08983849       0.01756845      -0.00080662       0.00306177      -0.00069715
H        0.37420628      -0.53521479       2.23589237      -0.00525644       0.04312048       0.02211301      -0.00258467      -0.00267649      -0.00109644
H        0.45030456      -1.94048757       1.14854485      -0.05315370       0.03461247       0.03715147       0.00239373      -0.00164460      -0.00204123
N        0.35563216       2.21246187       1.21591136      -0.00941953       0.03972096      -0.07206354       0.00442423      -0.00053978       0.00003052
O       -0.20737383       3.23810399       0.83205271       0.00576760      -0.06011743       0.04194627       0.00747590       0.00284872       0.00289551
O        0.41180652       1.85086666       2.39108378      -0.00284070      -0.03891902       0.04872125       0.00631713      -0.00194714      -0.00105801
14
Properties=species:S:1:pos:R:3:mp2_forces:R:3:forces:R:3 R1=H R2=CH3 R3=NO2 R4=H lg=Br nu=Br rxn-id=548 mp2_energy=-148797.68343559673 energy=-148797.72266972857 free_energy=-148797.6834356389 pbc="F F F"
C        0.53881785      -0.05514458       0.12949630       0.01098712      -0.00817254      -0.00975513      -0.00363176      -0.00094022      -0.00063688
C        1.03654905       1.37519826       0.19731244       0.04341570      -0.01258207      -0.00034730      -0.00241458      -0.00121385      -0.00365699
H        2.10115451       1.33608488       0.43931076       0.06079303       0.05849279      -0.03772367      -0.00095617      -0.00284651      -0.00975287
Br      -1.39611808      -0.05496005      -0.26801841      -0.00385081      -0.01310394      -0.01579738      -0.00465432      -0.00041226       0.00421632
Br       3.87586139      -0.38691612      -0.76598739      -0.01975164       0.06003689       0.01687124       0.00867356       0.01005770       0.01680206
H        1.02035772      -0.48069145      -0.74881536      -0.00103293       0.00457566      -0.07341766      -0.00671276      -0.00184699      -0.00190965
H        0.89675402       1.88544515      -0.75340426      -0.02317114      -0.03526284      -0.00021969      -0.00730275      -0.00129108      -0.00285350
C        0.82417801      -0.92865032       1.33136392      -0.00812514       0.01743708       0.02495270      -0.00111088      -0.00055690      -0.00108278
H        1.91069527      -0.97588172       1.43398743       0.00563860      -0.08983849       0.01756845      -0.00103785       0.00310345      -0.00035317
H        0.37139652      -0.53345053       2.23792463      -0.00525644       0.04312048       0.02211301      -0.00293399      -0.00262938      -0.00113679
H        0.45327141      -1.93872982       1.15061079      -0.05315370       0.03461247       0.03715147       0.00223729      -0.00158962      -0.00199354
N        0.34619797       2.21374659       1.21674229      -0.00941953       0.03972096      -0.07206354       0.00477290      -0.00061749       0.00010126
O       -0.21691874       3.23677026       0.82619186       0.00576760      -0.06011743       0.04194627       0.00802807       0.00296388       0.00333741
O        0.39142724       1.85284701       2.39251705      -0.00284070      -0.03891902       0.04872125       0.00704322      -0.00218072      -0.00108089
14
Properties=species:S:1:pos:R:3:mp2_forces:R:3:forces:R:3 R1=H R2=CH3 R3=NO2 R4=H lg=Br nu=Br rxn-id=548 mp2_energy=-148797.68343559673 energy=-148797.7304396452 free_energy=-148797.6834356389 pbc="F F F"
C        0.50415955      -0.05945282       0.11925001       0.01098712      -0.00817254      -0.00975513      -0.00278513      -0.00105061      -0.00028608
C        1.01642349       1.36609526       0.16463603       0.04341570      -0.01258207      -0.00034730      -0.00140167      -0.00132929      -0.00249401
H        2.09194515       1.31105740       0.35831007       0.06079303       0.05849279      -0.03772367      -0.00052004      -0.00255372      -0.00632094
Br      -1.44295067      -0.04740749      -0.21966755      -0.00385081      -0.01310394      -0.01579738      -0.00356643       0.00134097       0.00380607
Br       3.96597347      -0.31423270      -0.58222224      -0.01975164       0.06003689       0.01687124       0.00750957       0.01133499       0.01314394
H        0.94913747      -0.49284995      -0.77387396      -0.00103293       0.00457566      -0.07341766      -0.00566747      -0.00185290      -0.00151132
H        0.83681390       1.87867675      -0.77861318      -0.02317114      -0.03526284      -0.00021969      -0.00439451      -0.00159134      -0.00192871
C        0.81844301      -0.93311058       1.31399208      -0.00812514       0.01743708       0.02495270      -0.00081438      -0.00093533      -0.00099793
H        1.90710605      -0.96137236       1.40515452       0.00563860      -0.08983849       0.01756845      -0.00065430      -0.00133373      -0.00315669
H        0.36905820      -0.54870269       2.22670931      -0.00525644       0.04312048       0.02211301       0.00149265      -0.00032659      -0.00026222
H        0.46067706      -1.94775626       1.13266654      -0.05315370       0.03461247       0.03715147      -0.00193860      -0.00068875       0.00026078
N        0.38336015       2.20922471       1.21418612      -0.00941953       0.03972096      -0.07206354       0.00322824      -0.00103080      -0.00020800
O       -0.18266572       3.24134101       0.85249151       0.00576760      -0.06011743       0.04194627       0.00602859       0.00184246       0.00120208
O        0.47614304       1.84415729       2.38621277      -0.00284070      -0.03891902       0.04872125       0.00348350      -0.00182536      -0.00124696
14
Properties=species:S:1:pos:R:3:mp2_forces:R:3:forces:R:3 R1=H R2=CH3 R3=NO2 R4=H lg=Br nu=Br rxn-id=548 mp2_energy=-148797.68343559673 energy=-148797.72861853454 free_energy=-148797.6834356389 pbc="F F F"
C        0.50758931      -0.06588929       0.11681134       0.01098712      -0.00817254      -0.00975513      -0.00440427      -0.00063710      -0.00129072
C        1.02122227       1.35864693       0.15253087       0.04341570      -0.01258207      -0.00034730      -0.00290590      -0.00086860       0.00059098
H        2.10137394       1.30079242       0.31730975       0.06079303       0.05849279      -0.03772367      -0.00300385      -0.00328726       0.00183832
Br      -1.43157471      -0.05714116      -0.26611562      -0.00385081      -0.01310394      -0.01579738      -0.00567608       0.00026507       0.00442474
Br       3.96774589      -0.24010604      -0.61839046      -0.01975164       0.06003689       0.01687124       0.00537030      -0.00262632       0.01841012
H        0.97359568      -0.51045111      -0.76030882      -0.00103293       0.00457566      -0.07341766      -0.00953172       0.00077729      -0.00477934
H        0.81759518       1.87275004      -0.78573970      -0.02317114      -0.03526284      -0.00021969      -0.00100963      -0.00019204       0.00071326
C        0.78660577      -0.92525535       1.33069302      -0.00812514       0.01743708       0.02495270       0.00331431      -0.00134500      -0.00408059
H        1.86918325      -0.93330114       1.47270259       0.00563860      -0.08983849       0.01756845       0.00495723      -0.00139560      -0.01295122
H        0.29142577      -0.54656636       2.22244083      -0.00525644       0.04312048       0.02211301       0.01059905       0.00007987      -0.00057383
H        0.45412896      -1.94693960       1.13958442      -0.05315370       0.03461247       0.03715147       0.00200579      -0.00138013      -0.00059442
N        0.41578248       2.19329531       1.22281484      -0.00941953       0.03972096      -0.07206354      -0.00098753       0.00241062      -0.00026918
O       -0.18948300       3.21023516       0.88341373       0.00576760      -0.06011743       0.04194627       0.00261265       0.00298264      -0.00276727
O        0.56843334       1.83559774       2.39148525      -0.00284070      -0.03891902       0.04872125      -0.00134035       0.00521657       0.00132914
14
Properties=species:S:1:pos:R:3:mp2_forces:R:3:forces:R:3 R1=H R2=CH3 R3=NO2 R4=H lg=Br nu=Br rxn-id=548 mp2_energy=-148797.68343559673 energy=-148797.7215528762 free_energy=-148797.6834356389 pbc="F F F"
C        0.53602987      -0.06117519       0.12141004       0.01098712      -0.00817254      -0.00975513      -0.00452606      -0.00225021       0.00067775
C        1.04293557       1.36567134       0.16962040       0.04341570      -0.01258207      -0.00034730      -0.00665212      -0.00379380       0.00144635
H        2.11731409       1.31582131       0.36087114       0.06079303       0.05849279      -0.03772367      -0.00560822      -0.00499008      -0.00037125
Br      -1.39186272      -0.06265002      -0.31056174      -0.00385081      -0.01310394      -0.01579738      -0.00534237       0.00204119      -0.01208753
Br       3.90283117      -0.28726724      -0.77399916      -0.01975164       0.06003689       0.01687124       0.00092325      -0.00204643       0.02251871
H        1.03459557      -0.50528622      -0.73818541      -0.00103293       0.00457566      -0.07341766      -0.00815345      -0.00110324      -0.00506725
H        0.86067778       1.87999258      -0.77285196      -0.02317114      -0.03526284      -0.00021969      -0.00936297      -0.00045579       0.00453071
C        0.77569830      -0.91366041       1.34858465      -0.00812514       0.01743708       0.02495270       0.00378226      -0.00221615      -0.00522732
H        1.84953612      -0.90964556       1.53916655       0.00563860      -0.08983849       0.01756845       0.00798005      -0.00393657      -0.01853044
H        0.23810225      -0.54129863       2.21866261      -0.00525644       0.04312048       0.02211301       0.01650292      -0.00013538       0.00349265
H        0.46431727      -1.93966873       1.14383780      -0.05315370       0.03461247       0.03715147       0.00298360      -0.00335938       0.00322968
N        0.40234229       2.18757748       1.22994226      -0.00941953       0.03972096      -0.07206354       0.00241090       0.00124738       0.00556062
O       -0.24362138       3.17530843       0.88156927       0.00576760      -0.06011743       0.04194627       0.00588349       0.00775682      -0.00431904
O        0.56472796       1.84194844       2.40116559      -0.00284070      -0.03891902       0.04872125      -0.00082128       0.01324162       0.00414636
14
Properties=species:S:1:pos:R:3:mp2_forces:R:3:forces:R:3 R1=H R2=CH3 R3=NO2 R4=H lg=Br nu=Br rxn-id=548 mp2_energy=-148797.68343559673 energy=-148797.70916003827 free_energy=-148797.6834356389 pbc="F F F"
C        0.58309201      -0.05745451       0.13513440       0.01098712      -0.00817254      -0.00975513       0.00777399       0.01866287       0.01472698
C        1.08210854       1.37385970       0.20616106       0.04341570      -0.01258207      -0.00034730      -0.01820695      -0.02540938      -0.00494623
H        2.14372690       1.34171775       0.45041912       0.06079303       0.05849279      -0.03772367      -0.01083655      -0.01030679      -0.00504268
Br      -1.31689685      -0.06154465      -0.39860998      -0.00385081      -0.01310394      -0.01579738      -0.01590061      -0.01534935      -0.01835233
Br       3.77889148      -0.35019748      -1.06129497      -0.01975164       0.06003689       0.01687124       0.00167835      -0.00259586       0.01965378
H        1.13480270      -0.50101057      -0.69224269      -0.00103293       0.00457566      -0.07341766       0.00419460       0.00210139      -0.01388675
H        0.94067429       1.88234589      -0.74636427      -0.02317114      -0.03526284      -0.00021969      -0.00963053       0.01043504       0.01649223
C        0.75658337      -0.89887155       1.38051416      -0.00812514       0.01743708       0.02495270       0.00256765      -0.00364349      -0.00923711
H        1.81135363      -0.87090902       1.65059689       0.00563860      -0.08983849       0.01756845       0.01335812      -0.00973685      -0.01245861
H        0.15273226      -0.53959251       2.21253334      -0.00525644       0.04312048       0.02211301       0.01480786       0.00767902       0.00185615
H        0.48577656      -1.93304605       1.15642509      -0.05315370       0.03461247       0.03715147      -0.00430212      -0.00178127       0.00485830
N        0.37853414       2.18072951       1.24105256      -0.00941953       0.03972096      -0.07206354       0.01618173      -0.01622000       0.01359197
O       -0.32176246       3.11693750       0.86451659       0.00576760      -0.06011743       0.04194627       0.00025655       0.02745382      -0.00616648
O        0.54400757       1.86270355       2.42039074      -0.00284070      -0.03891902       0.04872125      -0.00194208       0.01871084      -0.00108922
14
Properties=species:S:1:pos:R:3:mp2_forces:R:3:forces:R:3 R1=H R2=CH3 R3=NO2 R4=H lg=Br nu=Br rxn-id=548 mp2_energy=-148797.68343559673 energy=-148797.70540085694 free_energy=-148797.6834356389 pbc="F F F"
C        0.58883383      -0.05888382       0.13916431       0.01098712      -0.00817254      -0.00975513       0.01561758       0.02332215       0.01795410
C        1.09163813       1.37133683       0.21120125       0.04341570      -0.01258207      -0.00034730      -0.02193818      -0.02808221      -0.00756807
H        2.15044010       1.33730635       0.46445994       0.06079303       0.05849279      -0.03772367      -0.00819233      -0.00923877      -0.00274013
Br      -1.30704093      -0.06321069      -0.40645923      -0.00385081      -0.01310394      -0.01579738      -0.01749326      -0.01320531      -0.03021857
Br       3.75822480      -0.33148914      -1.11906611      -0.01975164       0.06003689       0.01687124      -0.00893684      -0.00660108       0.02776602
H        1.14812798      -0.50412396      -0.68239570      -0.00103293       0.00457566      -0.07341766       0.00305170      -0.00012880      -0.01751694
H        0.96295959       1.87578592      -0.74532653      -0.02317114      -0.03526284      -0.00021969      -0.01594450       0.01471122       0.02074810
C        0.74843396      -0.89662010       1.38843030      -0.00812514       0.01743708       0.02495270       0.00035871      -0.00531694      -0.01004479
H        1.79597972      -0.85633863       1.68317125       0.00563860      -0.08983849       0.01756845       0.01264442      -0.01076746      -0.01771264
H        0.12021754      -0.54475375       2.20684613      -0.00525644       0.04312048       0.02211301       0.02860001       0.00617994       0.00402064
H        0.49392562      -1.93345350       1.15761657      -0.05315370       0.03461247       0.03715147      -0.00187510      -0.00337479       0.00935718
N        0.38117097       2.17805865       1.24084853      -0.00941953       0.03972096      -0.07206354       0.01093436      -0.00811740       0.00295879
O       -0.32815259       3.10662999       0.86008610       0.00576760      -0.06011743       0.04194627       0.00723116       0.02094671      -0.00530978
O        0.54886544       1.86542341       2.42065521      -0.00284070      -0.03891902       0.04872125      -0.00405773       0.01967273       0.00830610
14
Properties=species:S:1:pos:R:3:mp2_forces:R:3:forces:R:3 R1=H R2=CH3 R3=NO2 R4=H lg=Br nu=Br rxn-id=548 mp2_energy=-148797.68343559673 energy=-148797.62397421806 free_energy=-148797.6834356389 pbc="F F F"
C        0.35239079      -0.06063083       0.08886946       0.01098712      -0.00817254      -0.00975513       0.01956955      -0.07350578      -0.03462504
C        0.90792675       1.35333154       0.08485563       0.04341570      -0.01258207      -0.00034730      -0.04661363      -0.02737769      -0.00919901
H        2.00689909       1.22486801       0.12676160       0.06079303       0.05849279      -0.03772367      -0.03640619       0.00683054      -0.01473670
Br      -1.61491762      -0.42367007      -0.18921180      -0.00385081      -0.01310394      -0.01579738       0.09174736       0.36938666       0.07110762
Br       4.16313233      -0.05470633      -0.00441538      -0.01975164       0.06003689       0.01687124      -0.02340824       0.00467036      -0.01438000
H        0.73663367      -0.47479613      -0.83720745      -0.00103293       0.00457566      -0.07341766       0.13018271      -0.07195456      -0.02517828
H        0.63617295       1.89717109      -0.81684686      -0.02317114      -0.03526284      -0.00021969      -0.05945117      -0.02793250      -0.00745241
C        0.78224941      -0.92932170       1.25234316      -0.00812514       0.01743708       0.02495270       0.01824070      -0.02768158       0.00719823
H        1.86982947      -0.87053285       1.32722889       0.00563860      -0.08983849       0.01756845       0.01827658      -0.01757459       0.00549961
H        0.32404308      -0.59840887       2.18474128      -0.00525644       0.04312048       0.02211301       0.01656733       0.00451198       0.00172512
H        0.49078094      -1.95914810       1.05063214      -0.05315370       0.03461247       0.03715147       0.03072512      -0.04715398       0.04628193
N        0.56972218       2.23936876       1.22285647      -0.00941953       0.03972096      -0.07206354      -0.05400416      -0.03497498      -0.00687024
O        0.13590855       3.36316253       0.96096066       0.00576760      -0.06011743       0.04194627      -0.04540827      -0.02796829      -0.01139499
O        0.79285256       1.83898049       2.36766423      -0.00284070      -0.03891902       0.04872125      -0.06001769      -0.02927559      -0.00797585
14
Properties=species:S:1:pos:R:3:mp2_forces:R:3:forces:R:3 R1=H R2=CH3 R3=NO2 R4=H lg=Br nu=Br rxn-id=548 mp2_energy=-148797.68343559673 energy=-148797.449790144 free_energy=-148797.6834356389 pbc="F F F"
C        0.20363282       0.28453364       0.26557038       0.01098712      -0.00817254      -0.00975513      -0.01173145       0.00062499      -0.00054256
C        1.12206748       1.47685700       0.13629387       0.04341570      -0.01258207      -0.00034730      -0.01028965       0.00499813       0.00607731
H        2.17221551       1.15873585       0.21703497       0.06079303       0.05849279      -0.03772367      -0.01345576       0.00280831      -0.00563077
Br      -2.09161203      -2.17851892      -0.47068028      -0.00385081      -0.01310394      -0.01579738       0.04496676      -0.03976488      -0.01893797
Br       4.31480404      -0.03113081       0.16775486      -0.01975164       0.06003689       0.01687124      -0.01023074      -0.01059434       0.00022961
H        0.03688799      -0.11460857      -0.72779415      -0.00103293       0.00457566      -0.07341766       0.02274642      -0.00218813      -0.01874229
H        0.95058654       2.02408803      -0.78618935      -0.02317114      -0.03526284      -0.00021969      -0.01206681       0.00830001       0.00809388
C        0.70223746      -0.82046383       1.19114338      -0.00812514       0.01743708       0.02495270      -0.01108906       0.00074405       0.00300013
H        1.79022233      -0.77745160       1.25582759       0.00563860      -0.08983849       0.01756845       0.00088565      -0.01519135      -0.04642972
H        0.27057023      -0.69053230       2.18084600      -0.00525644       0.04312048       0.02211301       0.02291500       0.03654439       0.02616385
H        0.37220989      -1.76761355       0.78137341      -0.05315370       0.03461247       0.03715147      -0.05746245      -0.00723698       0.02542217
N        0.84457953       2.42196959       1.24765982      -0.00941953       0.03972096      -0.07206354       0.00457047       0.01175116       0.00138702
O        0.36595587       3.52424436       0.97045949       0.00576760      -0.06011743       0.04194627       0.02759529       0.01173083       0.00855014
O        1.09926649       2.03555868       2.38993202      -0.00284070      -0.03891902       0.04872125       0.00264634      -0.00252619       0.01135919
14
Properties=species:S:1:pos:R:3:mp2_forces:R:3:forces:R:3 R1=H R2=CH3 R3=NO2 R4=H lg=Br nu=Br rxn-id=548 mp2_energy=-148797.68343559673 energy=-148797.36278613884 free_energy=-148797.6834356389 pbc="F F F"
C        0.22729572       0.25752838       0.43222970       0.01098712      -0.00817254      -0.00975513      -0.06649363       0.04104789       0.09250283
C        1.14129634       1.38301441       0.06324971       0.04341570      -0.01258207      -0.00034730      -0.01858848      -0.00074920       0.01758652
H        2.20145307       1.11362933       0.17494560       0.06079303       0.05849279      -0.03772367      -0.02157569      -0.02325824       0.00779252
Br      -2.31694198      -1.58425447      -0.42063776      -0.00385081      -0.01310394      -0.01579738       0.01896075      -0.06830297      -0.03773761
Br       4.45764155       0.12440536       0.43592967      -0.01975164       0.06003689       0.01687124      -0.01851279      -0.01243134      -0.00097919
H       -0.45544226      -0.05411024      -0.34075670      -0.00103293       0.00457566      -0.07341766       0.01814662      -0.03365409      -0.05645029
H        0.92644938       1.85025681      -0.88658316      -0.02317114      -0.03526284      -0.00021969      -0.02242885      -0.02060472       0.00993000
C        0.84142876      -0.90942038       1.16521149      -0.00812514       0.01743708       0.02495270      -0.01104568      -0.00717379       0.00411666
H        1.81725772      -0.63773760       1.57038530       0.00563860      -0.08983849       0.01756845      -0.00693503      -0.00214024      -0.00816288
H        0.14437794      -1.19944799       1.95063274      -0.00525644       0.04312048       0.02211301       0.01332015      -0.06997045       0.02017435
H        0.93775342      -1.74149729       0.47897829      -0.05315370       0.03461247       0.03715147      -0.00531342       0.02498549      -0.04846519
N        0.83270999       2.40802074       1.12588188      -0.00941953       0.03972096      -0.07206354       0.03167674       0.04609060       0.00627141
O        0.23060721       3.42658198       0.79741857       0.00576760      -0.06011743       0.04194627       0.04746716       0.05690771      -0.01193961
O        1.16773728       2.10869852       2.27234671      -0.00284070      -0.03891902       0.04872125       0.04132215       0.06925335       0.00536047
14
Properties=species:S:1:pos:R:3:mp2_forces:R:3:forces:R:3 R1=H R2=CH3 R3=NO2 R4=H lg=Br nu=Br rxn-id=548 mp2_energy=-148797.68343559673 energy=-148797.38761566233 free_energy=-148797.6834356389 pbc="F F F"
C        0.53479610       0.07522966       0.00462254       0.01098712      -0.00817254      -0.00975513       0.01214625      -0.00205652      -0.01242901
C        1.24097741       1.39675920       0.00010478       0.04341570      -0.01258207      -0.00034730       0.00662631       0.00313276       0.00761466
H        2.31261304       1.22873107       0.19501980       0.06079303       0.05849279      -0.03772367       0.00445583       0.00924274       0.02146288
Br      -2.47072556      -1.34788638      -0.16437334      -0.00385081      -0.01310394      -0.01579738      -0.00918800       0.00308070       0.02133305
Br       4.53419794       0.23021605       0.56156943      -0.01975164       0.06003689       0.01687124      -0.00748625      -0.00137649       0.00927042
H       -0.55418199       0.14321956      -0.09047981      -0.00103293       0.00457566      -0.07341766       0.01340957      -0.00122295      -0.01344665
H        1.08098224       1.94255434      -0.92645074      -0.02317114      -0.03526284      -0.00021969       0.01656967       0.00543394       0.00721476