17
Properties=species:S:1:pos:R:3:mp2_forces:R:3:forces:R:3 R1=NH2 R2=H R3=CH3 R4=CH3 lg=Cl nu=F rxn-id=2473 mp2_energy=-21007.648798186394 energy=-21007.64878811187 free_energy=-21007.64878811187 pbc="F F F"
C        0.33339110      -0.06204988      -0.08571406       0.03472262      -0.02758133      -0.06188023       0.03479771      -0.02759281      -0.06197335
C        0.70729960       1.41632844      -0.07377916       0.01115057      -0.00579022       0.00380534       0.01119620      -0.00577468       0.00380363
H        1.79482070       1.35193037      -0.17380671       0.00598485      -0.01515504       0.02603508       0.00595601      -0.01514626       0.02603437
Cl      -1.46692095      -0.30127268      -0.42876007       0.00113767       0.04659735       0.03249029       0.00106795       0.04657535       0.03249466
F        2.95915173      -0.25468816       0.67448143      -0.00777253       0.00942936      -0.04008254      -0.00774963       0.00943767      -0.04005431
H        0.44557455      -0.46649500       0.92159679       0.00806190      -0.02885975       0.03281829       0.00804461      -0.02886524       0.03284998
N        1.12029462      -0.75171032      -1.07070981      -0.04271403      -0.00527231       0.05405739      -0.04267072      -0.00527719       0.05415638
H        0.82928935      -1.72608532      -1.07680594       0.01338236       0.01368030       0.04023802       0.01338222       0.01370083       0.04022113
H        2.05035866      -0.70303083      -0.55374513      -0.00893659       0.06748206      -0.06760071      -0.00900398       0.06746866      -0.06766927
C        0.43188744       2.03904539       1.28827139      -0.01419944      -0.00680569       0.00433382      -0.01418681      -0.00680311       0.00433584
H       -0.61563996       1.92595479       1.58978457      -0.01539838      -0.00409573      -0.03221052      -0.01540300      -0.00409208      -0.03220657
H        1.07536397       1.54721429       2.02211716      -0.02298371      -0.00211722       0.00394659      -0.02298858      -0.00211440       0.00395335
H        0.67087284       3.10857354       1.28749197      -0.00446702      -0.00516978      -0.00876942      -0.00447165      -0.00517411      -0.00876413
C        0.10436419       2.19720209      -1.23356990       0.00868423      -0.01505363       0.01021769       0.00869317      -0.01505876       0.01020502
H        0.20685553       1.62230549      -2.15599159       0.01787327      -0.00109203      -0.00942211       0.01786970      -0.00108766      -0.00940960
H       -0.95833979       2.39883207      -1.06995875       0.00146191       0.00437152      -0.00585758       0.00146277       0.00437218      -0.00585818
H        0.61658406       3.15786946      -1.35897014       0.01401233      -0.02456786       0.01788061       0.01400403      -0.02456838       0.01788106
17
Properties=species:S:1:pos:R:3:mp2_forces:R:3:forces:R:3 R1=NH2 R2=H R3=CH3 R4=CH3 lg=Cl nu=F rxn-id=2473 mp2_energy=-21007.648798186394 energy=-21007.695408683256 free_energy=-21007.64878811187 pbc="F F F"
C        0.33791457      -0.06907543      -0.04665283       0.03472262      -0.02758133      -0.06188023      -0.00368260      -0.00238807       0.00800931
C        0.71856818       1.40382977      -0.02340932       0.01115057      -0.00579022       0.00380534      -0.00019948      -0.00347768       0.00900111
H        1.81087404       1.31919194      -0.06418238       0.00598485      -0.01515504       0.02603508       0.00005976      -0.00580550       0.01440209
Cl      -1.48904513      -0.26157465      -0.27517108       0.00113767       0.04659735       0.03249029      -0.00546653       0.00321364       0.01343833
F        3.08333615      -0.24352610       0.39591591      -0.00777253       0.00942936      -0.04008254       0.01882028       0.01942932      -0.06724055
H        0.50926919      -0.49766819       0.94351045       0.00806190      -0.02885975       0.03281829      -0.00461401      -0.00404959       0.00789778
N        1.04177314      -0.74426851      -1.09435459      -0.04271403      -0.00527231       0.05405739      -0.00975421      -0.00309028       0.00520509
H        0.79635034      -1.73045440      -1.04679498       0.01338236       0.01368030       0.04023802       0.00214893      -0.00300033       0.01308066
H        2.02752969      -0.65078709      -0.69566107      -0.00893659       0.06748206      -0.06760071      -0.00480007       0.00910290      -0.01839613
C        0.35312450       2.05663570       1.30086792      -0.01419944      -0.00680569       0.00433382      -0.01034543       0.00212055       0.00302724
H       -0.71262973       1.93932763       1.52310734      -0.01539838      -0.00409573      -0.03221052      -0.01301571       0.01454644      -0.01252904
H        0.93465626       1.60597300       2.10866283      -0.02298371      -0.00211722       0.00394659      -0.02872577      -0.00100062       0.01183302
H        0.58114320       3.12902547       1.27995100      -0.00446702      -0.00516978      -0.00876942       0.00134560      -0.00113225       0.00530126
C        0.17926144       2.16640121      -1.22478279       0.00868423      -0.01505363       0.01021769       0.01213711      -0.00565619       0.00286752
H        0.31561351       1.57610051      -2.13165267       0.01787327      -0.00109203      -0.00942211       0.02401766      -0.00603923       0.00595295
H       -0.88755795       2.38050519      -1.10779809       0.00146191       0.00437152      -0.00585758       0.01118952      -0.00829898      -0.00983164
H        0.70502623       3.12028769      -1.33962360       0.01401233      -0.02456786       0.01788061       0.01088494      -0.00447413       0.00798100
17
Properties=species:S:1:pos:R:3:mp2_forces:R:3:forces:R:3 R1=NH2 R2=H R3=CH3 R4=CH3 lg=Cl nu=F rxn-id=2473 mp2_energy=-21007.648798186394 energy=-21007.769640965005 free_energy=-21007.64878811187 pbc="F F F"
C        0.26790510      -0.10445596       0.05707271       0.03472262      -0.02758133      -0.06188023       0.01405382       0.00345874      -0.00515972
C        0.71063117       1.35074296       0.09148172       0.01115057      -0.00579022       0.00380534       0.00741359       0.00224754      -0.00145093
H        1.80456444       1.23323652       0.11025728       0.00598485      -0.01515504       0.02603508       0.00719330       0.00112538      -0.00407984
Cl      -1.57981455      -0.20602140      -0.15623040       0.00113767       0.04659735       0.03249029       0.01891199      -0.00808180      -0.01218557
F        3.30991752       0.08368596      -0.53739068      -0.00777253       0.00942936      -0.04008254       0.00457840       0.04751442       0.00775644
H        0.38008045      -0.54948752       1.05645560       0.00806190      -0.02885975       0.03281829       0.01073523      -0.00347301      -0.00776844
N        0.92107765      -0.80499211      -0.99556861      -0.04271403      -0.00527231       0.05405739       0.03276592       0.01603016      -0.01799988
H        0.86844841      -1.78684228      -0.82012877       0.01338236       0.01368030       0.04023802      -0.06436028      -0.10174772       0.02649338
H        1.96103162      -0.51289282      -0.92644385      -0.00893659       0.06748206      -0.06760071      -0.05894079       0.04038550       0.01546960
C        0.23402677       2.07371893       1.34205576      -0.01419944      -0.00680569       0.00433382       0.00397013      -0.00194822       0.00020318
H       -0.85918541       2.13536999       1.36846235      -0.01539838      -0.00409573      -0.03221052       0.00315766      -0.00140379      -0.00210664
H        0.57453718       1.56564494       2.24644784      -0.02298371      -0.00211722       0.00394659       0.00089447      -0.00530135      -0.00041068
H        0.63245158       3.09668049       1.36447832      -0.00446702      -0.00516978      -0.00876942       0.00379353      -0.00211719       0.00463510
C        0.33761059       2.09203376      -1.18403952       0.00868423      -0.01505363       0.01021769       0.00437617       0.00367122      -0.00123866
H        0.64376574       1.50565291      -2.05060168       0.01787327      -0.00109203      -0.00942211       0.00734814       0.00466957      -0.00076868
H       -0.74086845       2.26158941      -1.24400273       0.00146191       0.00437152      -0.00585758       0.00354077      -0.00082289      -0.00191117
H        0.83902782       3.06625997      -1.22037328       0.01401233      -0.02456786       0.01788061       0.00056796       0.00579344       0.00052252
17
Properties=species:S:1:pos:R:3:mp2_forces:R:3:forces:R:3 R1=NH2 R2=H R3=CH3 R4=CH3 lg=Cl nu=F rxn-id=2473 mp2_energy=-21007.648798186394 energy=-21009.599769630484 free_energy=-21007.64878811187 pbc="F F F"
C        0.11275301      -0.14937169       0.13977556       0.03472262      -0.02758133      -0.06188023      -0.01085422       0.00754977       0.01663750
C        0.63596414       1.31153860       0.15081210       0.01115057      -0.00579022       0.00380534      -0.00181474      -0.00434335       0.00699289
H        1.72592479       1.19822286       0.21687504       0.00598485      -0.01515504       0.02603508      -0.00776842      -0.01145591       0.01325460
Cl      -1.79454801      -0.08381990      -0.01593736       0.00113767       0.04659735       0.03249029       0.00423652       0.00373390       0.00855076
F        3.25387742      -0.27073486      -0.97760884      -0.00777253       0.00942936      -0.04008254       0.02505003       0.00135958      -0.03988370
H        0.20283274      -0.54259584       1.16714835       0.00806190      -0.02885975       0.03281829      -0.01478983       0.00450493       0.01859926
N        0.59582365      -0.96327641      -0.78770264      -0.04271403      -0.00527231       0.05405739       0.00586819       0.01553795       0.01442686
H        1.54566196      -0.85131928      -0.96967180       0.01338236       0.01368030       0.04023802       0.00051122      -0.00577841       0.01320968
H        2.48008575      -0.80621904      -1.14889644      -0.00893659       0.06748206      -0.06760071      -0.00024248       0.00671020      -0.05346660
C        0.15895135       2.09691851       1.36029693      -0.01419944      -0.00680569       0.00433382      -0.01404321       0.00397705       0.00564429
H       -0.92558133       2.20315531       1.36175389      -0.01539838      -0.00409573      -0.03221052      -0.01173751       0.01357850       0.00379097
H        0.46583998       1.60905980       2.28792191      -0.02298371      -0.00211722       0.00394659      -0.01610860      -0.00074656       0.00837548
H        0.60133454       3.10555681       1.35501087      -0.00446702      -0.00516978      -0.00876942       0.00007595      -0.00268549      -0.00083330
C        0.35921047       2.02316965      -1.15834397       0.00868423      -0.01505363       0.01021769       0.00573231      -0.00789477      -0.00287496
H        0.72815236       1.42746189      -1.99744920       0.01787327      -0.00109203      -0.00942211       0.02450637      -0.00418703      -0.00168772
H       -0.71163662       2.20035871      -1.29875981       0.00146191       0.00437152      -0.00585758       0.00906519      -0.01297869      -0.02179446
H        0.87056144       2.99181862      -1.18329256       0.01401233      -0.02456786       0.01788061       0.00231321      -0.00688168       0.01105844
17
Properties=species:S:1:pos:R:3:mp2_forces:R:3:forces:R:3 R1=NH2 R2=H R3=CH3 R4=CH3 lg=Cl nu=F rxn-id=2473 mp2_energy=-21007.648798186394 energy=-21009.39238076759 free_energy=-21007.64878811187 pbc="F F F"
C        0.09560055      -0.10852068      -0.10829453       0.03472262      -0.02758133      -0.06188023      -0.06516798       0.00947319       0.02087163
C        0.63035375       1.35344609      -0.05919989       0.01115057      -0.00579022       0.00380534      -0.04332521       0.00852687       0.01463767
H        1.71386882       1.27034463      -0.15358657       0.00598485      -0.01515504       0.02603508      -0.03902028      -0.00696920       0.03069487
Cl      -1.88366333       0.00856232      -0.10296544       0.00113767       0.04659735       0.03249029       0.17761625      -0.06589525      -0.12207418
F        3.26822774      -0.53864825       0.01736358      -0.00777253       0.00942936      -0.04008254       0.00202180      -0.02626429      -0.07745829
H        0.15837494      -0.51757001       0.90352533       0.00806190      -0.02885975       0.03281829       0.14052194      -0.04781766       0.16251933
N        0.67102275      -0.86590787      -1.01613621      -0.04271403      -0.00527231       0.05405739      -0.04101906       0.01610212       0.02058079
H        1.62835641      -0.89286551      -0.82249450       0.01338236       0.01368030       0.04023802      -0.02322115       0.05359480       0.02211755
H        2.58399125      -0.82810231      -0.58417227      -0.00893659       0.06748206      -0.06760071      -0.00559158      -0.12983557      -0.08053256
C        0.38824807       1.97318286       1.30021733      -0.01419944      -0.00680569       0.00433382      -0.03570632       0.02254564       0.01001907
H       -0.66968692       1.94570413       1.57111147      -0.01539838      -0.00409573      -0.03221052      -0.03711484       0.04660638       0.01216437
H        0.95959837       1.43538660       2.06202663      -0.02298371      -0.00211722       0.00394659      -0.04785816       0.01598701       0.01590914
H        0.72515897       3.01847543       1.30928406      -0.00446702      -0.00516978      -0.00876942      -0.01054029       0.01737739       0.00245662
C        0.10657567       2.16277003      -1.22804171       0.00868423      -0.01505363       0.01021769      -0.00164231       0.01881979      -0.00278767
H        0.34008166       1.64933572      -2.16678426       0.01787327      -0.00109203      -0.00942211      -0.00205283       0.00092764       0.00331708
H       -0.97655236       2.27962025      -1.17260166       0.00146191       0.00437152      -0.00585758      -0.00313825       0.05958459      -0.02202940
H        0.56565132       3.15471030      -1.24731932       0.01401233      -0.02456786       0.01788061       0.03523829       0.00723654      -0.01040599
17
Properties=species:S:1:pos:R:3:mp2_forces:R:3:forces:R:3 R1=NH2 R2=H R3=CH3 R4=CH3 lg=Cl nu=F rxn-id=2473 mp2_energy=-21007.648798186394 energy=-21009.7852793869 free_energy=-21007.64878811187 pbc="F F F"
C        0.44549733      -0.15713280      -0.25722229       0.03472262      -0.02758133      -0.06188023      -0.05829204      -0.01524558      -0.01296234
C        0.86913851       1.31033671      -0.16885715       0.01115057      -0.00579022       0.00380534      -0.01213108      -0.02438000      -0.01684806
H        1.92776886       1.31767532      -0.37338763       0.00598485      -0.01515504       0.02603508      -0.01447895      -0.04597304      -0.02643753
Cl      -2.86153310       0.38135782       0.55818177       0.00113767       0.04659735       0.03249029      -0.03380310       0.04165888       0.01917411
F        3.22613849      -0.41200790       0.57129282      -0.00777253       0.00942936      -0.04008254      -0.05033394      -0.02560845      -0.03693980
H       -0.60927961      -0.26036608      -0.00527161       0.00806190      -0.02885975       0.03281829      -0.05912948       0.01564070      -0.00584464
N        0.90469921      -0.94756182      -1.15161333      -0.04271403      -0.00527231       0.05405739      -0.09770491      -0.11933136       0.04214173
H        1.75624608      -1.18379339      -0.92178469       0.01338236       0.01368030       0.04023802       0.30006970       0.25943766       0.07039968
H        2.60903938      -0.10765375      -0.07327029      -0.00893659       0.06748206      -0.06760071      -0.03416049      -0.01582202       0.02770719
C        0.61836634       1.83028439       1.23202393      -0.01419944      -0.00680569       0.00433382       0.01414006      -0.02416860      -0.01279889
H       -0.42331660       1.64481185       1.52525367      -0.01539838      -0.00409573      -0.03221052       0.01448053      -0.01244242      -0.00241521
H        1.29186379       1.32633534       1.93397293      -0.02298371      -0.00211722       0.00394659       0.01542556      -0.03651947      -0.02189339
H        0.79647924       2.91086741       1.28808602      -0.00446702      -0.00516978      -0.00876942       0.02823489      -0.02610593      -0.00984028
C        0.08900244       2.07690490      -1.22031902       0.00868423      -0.01505363       0.01021769      -0.00356557       0.00350368      -0.00480181
H        0.32571272       1.68105002      -2.20417504       0.01787327      -0.00109203      -0.00942211      -0.01611781       0.00842254      -0.01073698
H       -0.98783386       1.94700549      -1.04474916       0.00146191       0.00437152      -0.00585758      -0.00553056       0.01773261      -0.00280148
H        0.32721843       3.14181024      -1.18622889       0.01401233      -0.02456786       0.01788061       0.01289721      -0.00079920       0.00489769
17
Properties=species:S:1:pos:R:3:mp2_forces:R:3:forces:R:3 R1=NH2 R2=H R3=CH3 R4=CH3 lg=Cl nu=F rxn-id=2473 mp2_energy=-21007.648798186394 energy=-21009.46427681457 free_energy=-21007.64878811187 pbc="F F F"
C        0.55977412      -0.12568829      -0.22881857       0.03472262      -0.02758133      -0.06188023      -0.03446623      -0.01023663      -0.02862702
C        0.89416777       1.35933015      -0.13155168       0.01115057      -0.00579022       0.00380534      -0.00578403      -0.02490309      -0.02359435
H        1.95842734       1.40865706      -0.31455109       0.00598485      -0.01515504       0.02603508      -0.00398555      -0.07244906      -0.03279324
Cl      -2.79271901       0.29583651       0.52641003       0.00113767       0.04659735       0.03249029      -0.01113043       0.01566681       0.01371670
F        3.29256247      -0.35848389       0.59499477      -0.00777253       0.00942936      -0.04008254       0.09331443      -0.05425157       0.05313873
H       -0.49185262      -0.28768880       0.01297201       0.00806190      -0.02885975       0.03281829      -0.02963435       0.00190714       0.03487232
N        1.08324390      -0.71053396      -1.24068848      -0.04271403      -0.00527231       0.05405739      -0.10331036       0.00704465      -0.07482199
H        1.18208232      -1.69083082      -1.05699132       0.01338236       0.01368030       0.04023802       0.02680574      -0.00085501       0.02926990
H        2.70956908      -0.09754213      -0.10518295      -0.00893659       0.06748206      -0.06760071      -0.00343837       0.23163791       0.13158807
C        0.58516187       1.88175801       1.25921893      -0.01419944      -0.00680569       0.00433382       0.01562655      -0.03053679      -0.01730366
H       -0.45768639       1.67097598       1.52803437      -0.01539838      -0.00409573      -0.03221052       0.01327534      -0.01609181      -0.00462188
H        1.25430303       1.40520934       1.98316408      -0.02298371      -0.00211722       0.00394659       0.02038009      -0.04815335      -0.03296401
H        0.73241765       2.96669580       1.30781891      -0.00446702      -0.00516978      -0.00876942       0.02662511      -0.03114678      -0.00797015
C        0.09991973       2.06902528      -1.21125802       0.00868423      -0.01505363       0.01021769       0.00022414       0.00266936      -0.01218337
H        0.36516819       1.66121652      -2.18157598       0.01787327      -0.00109203      -0.00942211      -0.00448666       0.01918474      -0.01844685
H       -0.97328829       1.90929071      -1.04246970       0.00146191       0.00437152      -0.00585758      -0.00357599       0.00796203      -0.01665442
H        0.30395647       3.14269626      -1.19759327       0.01401233      -0.02456786       0.01788061       0.00356057       0.00255147       0.00739523
17
Properties=species:S:1:pos:R:3:mp2_forces:R:3:forces:R:3 R1=NH2 R2=H R3=CH3 R4=CH3 lg=Cl nu=F rxn-id=2473 mp2_energy=-21007.648798186394 energy=-21008.94488428933 free_energy=-21007.64878811187 pbc="F F F"
C        0.62919325      -0.10551031      -0.17454651       0.03472262      -0.02758133      -0.06188023      -0.15840615      -0.06846832      -0.12030288
C        0.90550272       1.40828304      -0.08472304       0.01115057      -0.00579022       0.00380534      -0.08246904       0.01405421      -0.03583738
H        1.96718676       1.55280006      -0.24837967       0.00598485      -0.01515504       0.02603508      -0.12705869       0.08999948      -0.05728917
Cl      -2.76949061       0.26929211       0.50623066       0.00113767       0.04659735       0.03249029      -0.00616181       0.00910361       0.00210766
F        3.11438494      -0.25885429       0.49325623      -0.00777253       0.00942936      -0.04008254       0.24252544      -0.63482956      -0.72237557
H       -0.43200049      -0.29189675      -0.05679889       0.00806190      -0.02885975       0.03281829      -0.15049693       0.06995324       0.05200889
N        1.28612334      -0.72308611      -1.09779351      -0.04271403      -0.00527231       0.05405739      -0.34103557       0.13913853      -0.22165717
H        1.12608248      -1.68973287      -1.11777114       0.01338236       0.01368030       0.04023802       0.02164041       0.07270556       0.16519768
H        2.72058427      -0.55068857      -0.36376393      -0.00893659       0.06748206      -0.06760071       0.82964194       0.24580737       1.04971544
C        0.55186679       1.94225183       1.29339797      -0.01419944      -0.00680569       0.00433382      -0.04616060      -0.01071164      -0.01579201
H       -0.48634988       1.70155629       1.53634465      -0.01539838      -0.00409573      -0.03221052      -0.02973527       0.00657300       0.02141676
H        1.21172018       1.50211819       2.04889893      -0.02298371      -0.00211722       0.00394659      -0.02500434      -0.02428723      -0.03181561
H        0.67503540       3.02897933       1.32311592      -0.00446702      -0.00516978      -0.00876942      -0.00680901      -0.01391825      -0.00484996
C        0.09982175       2.06299216      -1.18749121       0.00868423      -0.01505363       0.01021769      -0.04936606       0.02871070      -0.01854840
H        0.37443218       1.62133947      -2.14481518       0.01787327      -0.00109203      -0.00942211      -0.01474472       0.02848671      -0.01716099
H       -0.96597334       1.89305661      -1.00948207       0.00146191       0.00437152      -0.00585758      -0.04178112       0.02895188      -0.03864431
H        0.29708789       3.13702357      -1.21374715       0.01401233      -0.02456786       0.01788061      -0.01457848       0.01873072      -0.00617299
17
Properties=species:S:1:pos:R:3:mp2_forces:R:3:forces:R:3 R1=NH2 R2=H R3=CH3 R4=CH3 lg=Cl nu=F rxn-id=2473 mp2_energy=-21007.648798186394 energy=-21007.625756444686 free_energy=-21007.64878811187 pbc="F F F"
C        0.68752254      -0.08060261      -0.13085050       0.03472262      -0.02758133      -0.06188023      -0.05263301      -0.00576304      -0.02031566
C        0.93580878       1.40314046      -0.07174352       0.01115057      -0.00579022       0.00380534      -0.01175286      -0.00902104       0.00286941
H        2.01372950       1.52016958      -0.22762270       0.00598485      -0.01515504       0.02603508      -0.00647474      -0.04003805       0.01210454
Cl      -2.76720170       0.26741799       0.50701904       0.00113767       0.04659735       0.03249029      -0.01567413       0.01212928       0.00204573
F        3.02279338      -0.02632161       0.75737879      -0.00777253       0.00942936      -0.04008254       0.13264317       0.03165330      -0.06103825
H       -0.37658275      -0.31785122      -0.07680958       0.00806190      -0.02885975       0.03281829      -0.04712863       0.00450156      -0.04498496
N        1.41203251      -0.77420846      -1.01638719      -0.04271403      -0.00527231       0.05405739      -0.00213520      -0.00868475       0.02974900
H        1.11876943      -1.71636980      -1.17907307       0.01338236       0.01368030       0.04023802       0.01450998      -0.00817418       0.00649650
H        2.41774898      -0.64047329      -0.74658236      -0.00893659       0.06748206      -0.06760071      -0.00663153       0.02306286       0.06499697
C        0.56871643       1.94600328       1.29909067      -0.01419944      -0.00680569       0.00433382      -0.00585925      -0.00659858       0.00128023
H       -0.47541156       1.69869731       1.52840437      -0.01539838      -0.00409573      -0.03221052      -0.00652109      -0.00058833       0.00512265
H        1.22102308       1.51076879       2.06031743      -0.02298371      -0.00211722       0.00394659      -0.00580581      -0.00753201       0.00108775
H        0.67730637       3.03388417       1.32496852      -0.00446702      -0.00516978      -0.00876942       0.00116577      -0.00711625       0.00001499
C        0.11776636       2.05243404      -1.18074173       0.00868423      -0.01505363       0.01021769       0.00157194       0.00449109       0.00045416
H        0.37958659       1.61077115      -2.13859957       0.01787327      -0.00109203      -0.00942211       0.00153603       0.00218972       0.00161092
H       -0.95073302       1.88238552      -0.99517301       0.00146191       0.00437152      -0.00585758      -0.00115751       0.01268994      -0.00374852
H        0.30233273       3.13007843      -1.21166353       0.01401233      -0.02456786       0.01788061       0.01034686       0.00279849       0.00225454
17
Properties=species:S:1:pos:R:3:mp2_forces:R:3:forces:R:3 R1=NH2 R2=H R3=CH3 R4=CH3 lg=Cl nu=F rxn-id=2473 mp2_energy=-21007.648798186394 energy=-21007.591300131236 free_energy=-21007.64878811187 pbc="F F F"
C        0.80688738      -0.06813328      -0.08770189       0.03472262      -0.02758133      -0.06188023       0.06953451       0.00348589       0.03026505
C        0.96193999       1.42300356      -0.07961349       0.01115057      -0.00579022       0.00380534       0.00966834       0.00846172      -0.00412762
H        2.02775663       1.61128724      -0.25635289       0.00598485      -0.01515504       0.02603508       0.00480427       0.03511851      -0.01117191
Cl      -2.73205062       0.24971107       0.51249807       0.00113767       0.04659735       0.03249029       0.01029142      -0.00065261       0.00577263
F        2.71757890      -0.09821975       0.90355782      -0.00777253       0.00942936      -0.04008254      -0.15361235      -0.03242024       0.03550771
H       -0.26951618      -0.32926101       0.02018999       0.00806190      -0.02885975       0.03281829       0.05451868      -0.00722478       0.04372352
N        1.42013119      -0.75406487      -1.08489236      -0.04271403      -0.00527231       0.05405739       0.00666186       0.00940121      -0.02898266
H        1.09152000      -1.69793864      -1.19592231       0.01338236       0.01368030       0.04023802      -0.00493184       0.00813757      -0.00307836
H        2.43509099      -0.69109722      -0.89190432      -0.00893659       0.06748206      -0.06760071       0.00837102      -0.02044804      -0.05736423
C        0.58160165       1.95903692       1.29538411      -0.01419944      -0.00680569       0.00433382       0.00350376       0.00473308      -0.00168856
H       -0.46082653       1.69737154       1.51612060      -0.01539838      -0.00409573      -0.03221052       0.00391127      -0.00099510      -0.00472361
H        1.23446158       1.52551171       2.05610880      -0.02298371      -0.00211722       0.00394659       0.00223826       0.00550806      -0.00085686
H        0.67354950       3.04814904       1.32486114      -0.00446702      -0.00516978      -0.00876942      -0.00308026       0.00500393       0.00037050
C        0.11326942       2.04200335      -1.18263899       0.00868423      -0.01505363       0.01021769      -0.00185760      -0.00409243      -0.00113765
H        0.37437317       1.60526708      -2.14321700       0.01787327      -0.00109203      -0.00942211      -0.00261091      -0.00211916      -0.00240374
H       -0.94895441       1.85391215      -0.98655873       0.00146191       0.00437152      -0.00585758       0.00026901      -0.00900147       0.00269291
H        0.27839498       3.12338484      -1.21798651       0.01401233      -0.02456786       0.01788061      -0.00767947      -0.00289615      -0.00279713
17
Properties=species:S:1:pos:R:3:mp2_forces:R:3:forces:R:3 R1=NH2 R2=H R3=CH3 R4=CH3 lg=Cl nu=F rxn-id=2473 mp2_energy=-21007.648798186394 energy=-21007.983271851517 free_energy=-21007.64878811187 pbc="F F F"
C        0.97111034      -0.06526958      -0.00325917       0.03472262      -0.02758133      -0.06188023       0.71773076       0.01222618       0.36853848
C        0.97625079       1.43887738      -0.08665224       0.01115057      -0.00579022       0.00380534       0.06235592       0.06913083      -0.03127147
H        2.03443575       1.66382520      -0.27166255       0.00598485      -0.01515504       0.02603508       0.02897574       0.22976381      -0.06726775
Cl      -2.72303169       0.24674174       0.51283040       0.00113767       0.04659735       0.03249029       0.03882945      -0.00855137       0.00566266
F        2.40486552      -0.15842542       0.89259137      -0.00777253       0.00942936      -0.04008254      -1.36926564      -0.26381260      -0.04542630
H       -0.15406303      -0.34493686       0.11008118       0.00806190      -0.02885975       0.03281829       0.50504963      -0.06915427       0.39140600
N        1.43301776      -0.73657747      -1.13328163      -0.04271403      -0.00527231       0.05405739       0.05786431       0.07677778      -0.21210172