13
Properties=species:S:1:pos:R:3:mp2_forces:R:3:forces:R:3 R1=H R2=H R3=NH2 R4=NH2 lg=Br nu=Br rxn-id=202 mp2_energy=-145181.04044013427 energy=-145181.0404384687 free_energy=-145181.0404384687 pbc="F F F"
C        0.56099895       0.02372052      -0.13402529       0.04071189       0.02932808      -0.02090016       0.04070449       0.02935070      -0.02089584
C        0.92222817       1.48767210      -0.00708835      -0.01031407       0.04728772      -0.01105766      -0.01028093       0.04729596      -0.01105883
H        2.01279428       1.49539298      -0.12667658      -0.01159507      -0.01339516      -0.03875998      -0.01160737      -0.01339642      -0.03876098
Br      -1.38030371      -0.27483943      -0.13742438      -0.00747166      -0.03212426      -0.02780399      -0.00747927      -0.03212587      -0.02780245
Br       3.74217022      -0.04728195       1.46335494      -0.02839698       0.03249646       0.08052242      -0.02839738       0.03249606       0.08052281
H        0.94262912      -0.38109567      -1.07030220      -0.07810702       0.04229911       0.00661562      -0.07810181       0.04229305       0.00661153
H        0.96998581      -0.53645125       0.70154874       0.03363794      -0.04281685       0.01050884       0.03364438      -0.04282744       0.01051045
N        0.52716361       1.97403352       1.31861961      -0.00786544      -0.00933499       0.01639261      -0.00786677      -0.00934689       0.01636494
H        0.82293879       2.94333261       1.39038687       0.04303624      -0.03000486      -0.01488789       0.04302354      -0.02999709      -0.01488006
H        1.09623610       1.46367685       1.99188099       0.04184372      -0.00656978      -0.00330847       0.04184794      -0.00657216      -0.00329745
N        0.34033975       2.26591708      -1.08580125      -0.01330296      -0.00483408      -0.05693188      -0.01329891      -0.00485017      -0.05693023
H        0.72811585       3.20260278      -1.06735288       0.01396206      -0.02491124       0.01406655       0.01395432      -0.02490579       0.01407560
H       -0.65686234       2.34385567      -0.91678185      -0.01613865       0.01257984       0.04554401      -0.01614220       0.01258606       0.04554053
13
Properties=species:S:1:pos:R:3:mp2_forces:R:3:forces:R:3 R1=H R2=H R3=NH2 R4=NH2 lg=Br nu=Br rxn-id=202 mp2_energy=-145181.04044013427 energy=-145181.0802873689 free_energy=-145181.0404384687 pbc="F F F"
C        0.62569944       0.04228510      -0.25647547       0.04071189       0.02932808      -0.02090016       0.01441854      -0.00291693       0.00766961
C        0.93198565       1.51984063      -0.12589715      -0.01031407       0.04728772      -0.01105766      -0.00293287      -0.00068909      -0.00128956
H        1.98705708       1.60178037      -0.42425310      -0.01159507      -0.01339516      -0.03875998       0.00039771       0.00294705      -0.00216747
Br      -1.27047273      -0.34522310       0.08118218      -0.00747166      -0.03212426      -0.02780399      -0.00028128      -0.00187203       0.00077776
Br       3.29991131      -0.12691514       2.26683467      -0.02839698       0.03249646       0.08052242      -0.00856218      -0.00773573      -0.00071453
H        0.84323172      -0.30703395      -1.26433606      -0.07810702       0.04229911       0.00661562       0.00151934       0.00002734       0.00105570
H        1.20866214      -0.51173356       0.48339758       0.03363794      -0.04281685       0.01050884      -0.00312449       0.00668330      -0.00459546
N        0.71032306       1.93299020       1.25729824      -0.00786544      -0.00933499       0.01639261       0.00158774       0.00226196      -0.00010731
H        1.04568703       2.88500467       1.35689681       0.04303624      -0.03000486      -0.01488789       0.00267215       0.00155726      -0.00023353
H        1.31944842       1.35692896       1.84319890       0.04184372      -0.00656978      -0.00330847       0.00063463       0.00095488      -0.00023360
N        0.15318666       2.29486672      -1.07132645      -0.01330296      -0.00483408      -0.05693188      -0.00207298       0.00026404      -0.00001163
H        0.55366328       3.22226285      -1.14491037       0.01396206      -0.02491124       0.01406655      -0.00350254      -0.00085199      -0.00269260
H       -0.77994846       2.39548208      -0.68127140      -0.01613865       0.01257984       0.04554401      -0.00075378      -0.00063007       0.00254261
13
Properties=species:S:1:pos:R:3:mp2_forces:R:3:forces:R:3 R1=H R2=H R3=NH2 R4=NH2 lg=Br nu=Br rxn-id=202 mp2_energy=-145181.04044013427 energy=-145181.07957228128 free_energy=-145181.0404384687 pbc="F F F"
C        0.61889969       0.04007198      -0.25588839       0.04071189       0.02932808      -0.02090016       0.03993245      -0.01114920       0.00984111
C        0.93118176       1.51637513      -0.12188189      -0.01031407       0.04728772      -0.01105766      -0.01017851      -0.00447289      -0.00235935
H        1.98785559       1.59464169      -0.41498093      -0.01159507      -0.01339516      -0.03875998       0.00198130       0.00283058      -0.00288880
Br      -1.27892616      -0.34253281       0.07106321      -0.00747166      -0.03212426      -0.02780399      -0.00621016      -0.00277706       0.00205551
Br       3.32286547      -0.10777069       2.25127958      -0.02839698       0.03249646       0.08052242      -0.00916940      -0.00879026       0.00156742
H        0.84120542      -0.30868390      -1.26348828      -0.07810702       0.04229911       0.00661562      -0.00296874       0.00266202       0.00686714
H        1.19779754      -0.51791166       0.48594687       0.03363794      -0.04281685       0.01050884      -0.01313356       0.01451998      -0.01427235
N        0.70467471       1.92817333       1.26065594      -0.00786544      -0.00933499       0.01639261       0.00248524       0.00386591       0.00072299
H        1.03053735       2.88366972       1.35950131       0.04303624      -0.03000486      -0.01488789       0.00344963       0.00137426      -0.00049218
H        1.32036137       1.35861411       1.84633481       0.04184372      -0.00656978      -0.00330847       0.00123400       0.00096856      -0.00085654
N        0.15952624       2.29468528      -1.07007927      -0.01330296      -0.00483408      -0.05693188      -0.00200980       0.00233905      -0.00050068
H        0.56655573       3.21918234      -1.14502790       0.01396206      -0.02491124       0.01406655      -0.00465149      -0.00016998      -0.00251861
H       -0.77410012       2.40202129      -0.68309668      -0.01613865       0.01257984       0.04554401      -0.00076096      -0.00120098       0.00283433
13
Properties=species:S:1:pos:R:3:mp2_forces:R:3:forces:R:3 R1=H R2=H R3=NH2 R4=NH2 lg=Br nu=Br rxn-id=202 mp2_energy=-145181.04044013427 energy=-145181.08182972236 free_energy=-145181.0404384687 pbc="F F F"
C        0.66644752       0.05959636      -0.26296817       0.04071189       0.02932808      -0.02090016       0.01229007      -0.00205184       0.01292898
C        0.93471003       1.54592310      -0.15377331      -0.01031407       0.04728772      -0.01105766      -0.00217385      -0.00175930      -0.00156597
H        1.97237954       1.65864550      -0.49539664      -0.01159507      -0.01339516      -0.03875998       0.00044903       0.00107456      -0.00110789
Br      -1.20731008      -0.37158482       0.14233638      -0.00747166      -0.03212426      -0.02780399      -0.00181625       0.00067286      -0.00109184
Br       3.15479673      -0.27843381       2.39109667      -0.02839698       0.03249646       0.08052242      -0.00306474      -0.00297172       0.00121525
H        0.86232390      -0.29596143      -1.27279818      -0.07810702       0.04229911       0.00661562       0.00098450      -0.00131011      -0.00363030
H        1.28459075      -0.47187223       0.46794773       0.03363794      -0.04281685       0.01050884      -0.00642189       0.00539942      -0.00696760
N        0.75098626       1.96189371       1.23560832      -0.00786544      -0.00933499       0.01639261       0.00113872       0.00042881      -0.00032906
H        1.12498934       2.89887060       1.33909168       0.04303624      -0.03000486      -0.01488789       0.00061762       0.00070469      -0.00051206
H        1.32757761       1.35385921       1.82197087       0.04184372      -0.00656978      -0.00330847       0.00181792       0.00075652      -0.00031137
N        0.09965381       2.29333457      -1.07400486      -0.01330296      -0.00483408      -0.05693188      -0.00084363       0.00036342       0.00024221
H        0.47535868       3.22838334      -1.17241604       0.01396206      -0.02491124       0.01406655      -0.00266640      -0.00028173      -0.00084071
H       -0.81806948       2.37788171      -0.64635608      -0.01613865       0.01257984       0.04554401      -0.00031109      -0.00102558       0.00197037
13
Properties=species:S:1:pos:R:3:mp2_forces:R:3:forces:R:3 R1=H R2=H R3=NH2 R4=NH2 lg=Br nu=Br rxn-id=202 mp2_energy=-145181.04044013427 energy=-145181.08165964924 free_energy=-145181.0404384687 pbc="F F F"
C        0.66401774       0.06027091      -0.26563708       0.04071189       0.02932808      -0.02090016       0.01195931      -0.00284321       0.02513870
C        0.93719205       1.54546464      -0.15499648      -0.01031407       0.04728772      -0.01105766      -0.00212838      -0.00048532      -0.00307252
H        1.97483539       1.65657411      -0.49694280      -0.01159507      -0.01339516      -0.03875998      -0.00029163       0.00075883      -0.00118369
Br      -1.21227259      -0.36132078       0.14094021      -0.00747166      -0.03212426      -0.02780399       0.00103944      -0.00367999      -0.00083810
Br       3.15760711      -0.26917487       2.40146527      -0.02839698       0.03249646       0.08052242      -0.00403413      -0.00493884      -0.00135240
H        0.85758198      -0.29545251      -1.27504126      -0.07810702       0.04229911       0.00661562       0.00408232      -0.00374809      -0.00946575
H        1.28029919      -0.47422304       0.46521185       0.03363794      -0.04281685       0.01050884      -0.00898345       0.00736575      -0.00872158
N        0.75561539       1.96029846       1.23540805      -0.00786544      -0.00933499       0.01639261      -0.00014569       0.00047222      -0.00117057
H        1.13107861       2.89655216       1.33987247       0.04303624      -0.03000486      -0.01488789       0.00014730       0.00177086      -0.00182325
H        1.33275530       1.35135047       1.82041851       0.04184372      -0.00656978      -0.00330847       0.00038616       0.00160322      -0.00020341
N        0.10345991       2.29424018      -1.07555918      -0.01330296      -0.00483408      -0.05693188      -0.00153186       0.00120543       0.00001330
H        0.46700501       3.23599739      -1.15573031       0.01396206      -0.02491124       0.01406655      -0.00027426      -0.00027135      -0.00179856
H       -0.82074048       2.35995870      -0.65907088      -0.01613865       0.01257984       0.04554401      -0.00022514       0.00279049       0.00447784
13
Properties=species:S:1:pos:R:3:mp2_forces:R:3:forces:R:3 R1=H R2=H R3=NH2 R4=NH2 lg=Br nu=Br rxn-id=202 mp2_energy=-145181.04044013427 energy=-145180.99038494684 free_energy=-145181.0404384687 pbc="F F F"
C        0.54820859       0.03441373      -0.24645393       0.04071189       0.02932808      -0.02090016      -0.10506629       0.00081199      -0.03049842
C        0.96292976       1.48409438      -0.08526687      -0.01031407       0.04728772      -0.01105766      -0.05341956      -0.00009168      -0.01215419
H        2.03128300       1.52950295      -0.34661592      -0.01159507      -0.01339516      -0.03875998      -0.02865599      -0.04691090       0.00231914
Br      -1.49815813      -0.09620584      -0.18456486      -0.00747166      -0.03212426      -0.02780399       0.50912082      -0.16590971       0.12363114
Br       3.56130579       0.12342749       2.19405478      -0.02839698       0.03249646       0.08052242      -0.04216560      -0.00503774      -0.02521857
H        0.82729607      -0.33546874      -1.23201612      -0.07810702       0.04229911       0.00661562      -0.04514277       0.00349529      -0.01243139
H        1.05665629      -0.56690016       0.51721949       0.03363794      -0.04281685       0.01050884      -0.25589431      -0.01878715       0.01062157
N        0.73864234       1.88386720       1.30519956      -0.00786544      -0.00933499       0.01639261      -0.02272555       0.01329135      -0.00460836
H        1.01223612       2.85635758       1.39986332       0.04303624      -0.03000486      -0.01488789       0.00077835       0.00532044      -0.01739715
H        1.42110292       1.36071980       1.86752646       0.04184372      -0.00656978      -0.00330847      -0.01677832       0.00428895      -0.01978861
N        0.23568576       2.26959953      -1.05809872      -0.01330296      -0.00483408      -0.05693188       0.00691923       0.05718006      -0.01759176
H        0.48731693       3.24092498      -0.97323485       0.01396206      -0.02491124       0.01406655       0.04765356       0.04778375       0.01005324
H       -0.75607085       2.17620291      -0.83727397      -0.01613865       0.01257984       0.04554401       0.00537642       0.10456536      -0.00693665
13
Properties=species:S:1:pos:R:3:mp2_forces:R:3:forces:R:3 R1=H R2=H R3=NH2 R4=NH2 lg=Br nu=Br rxn-id=202 mp2_energy=-145181.04044013427 energy=-145180.8372527681 free_energy=-145181.0404384687 pbc="F F F"
C        0.85567044      -0.00445284      -0.14697438       0.04071189       0.02932808      -0.02090016       0.02554357      -0.00827180       0.01009681
C        1.05867940       1.48361302      -0.06756592      -0.01031407       0.04728772      -0.01105766      -0.00002375      -0.01267957      -0.00073626
H        2.09488674       1.65141377      -0.37644753      -0.01159507      -0.01339516      -0.03875998      -0.00733914       0.00260482      -0.00340910
Br      -2.63092390       0.27440201      -0.50366364      -0.00747166      -0.03212426      -0.02780399      -0.00381689       0.04199283      -0.02804217
Br       3.60230150       0.06314334       2.29158227      -0.02839698       0.03249646       0.08052242      -0.01503493       0.00106408      -0.00980284
H        0.92645812      -0.32600289      -1.17439489      -0.07810702       0.04229911       0.00661562       0.00523014      -0.00395359       0.01058309
H        1.61859348      -0.47783862       0.47278334       0.03363794      -0.04281685       0.01050884       0.00496407       0.01044915      -0.00362015
N        0.81861364       1.87756390       1.31752774      -0.00786544      -0.00933499       0.01639261       0.00728814       0.00329628       0.00709583
H        1.05128689       2.85952423       1.41613823       0.04303624      -0.03000486      -0.01488789       0.00881381       0.00361880      -0.00021132
H        1.49863700       1.37264725       1.89491618       0.04184372      -0.00656978      -0.00330847       0.01338920       0.00589775      -0.00518387
N        0.19518071       2.14324503      -1.01316035      -0.01330296      -0.00483408      -0.05693188      -0.00013735      -0.01422078       0.01012475
H        0.32533095       3.13714236      -0.97792348       0.01396206      -0.02491124       0.01406655      -0.03211980      -0.00231140       0.01309931
H       -0.78628038       1.90613524      -0.81247920      -0.01613865       0.01257984       0.04554401      -0.00675707      -0.02748659       0.00000592
13
Properties=species:S:1:pos:R:3:mp2_forces:R:3:forces:R:3 R1=H R2=H R3=NH2 R4=NH2 lg=Br nu=Br rxn-id=202 mp2_energy=-145181.04044013427 energy=-145180.90378896863 free_energy=-145181.0404384687 pbc="F F F"
C        1.19336479      -0.10668251      -0.24021882       0.04071189       0.02932808      -0.02090016       0.01009260       0.00036922      -0.00764024
C        1.06379522       1.38508104      -0.10109976      -0.01031407       0.04728772      -0.01105766       0.00141689      -0.00415835      -0.00917793
H        2.05102566       1.77913041      -0.36816709      -0.01159507      -0.01339516      -0.03875998      -0.00256136       0.00031280       0.01002391
Br      -2.92421939       1.56812109      -0.27678346      -0.00747166      -0.03212426      -0.02780399       0.01333502       0.03040745       0.06084018
Br       3.66624077       0.22262228       2.36490817      -0.02839698       0.03249646       0.08052242      -0.00776633       0.01146623       0.00067774
H        1.48436223      -0.34333003      -1.25352759      -0.07810702       0.04229911       0.00661562       0.03038640      -0.00320487      -0.00576426
H        1.95367888      -0.44098372       0.47039498       0.03363794      -0.04281685       0.01050884      -0.00053140      -0.00238744       0.00154891
N        0.69698046       1.67046986       1.28249923      -0.00786544      -0.00933499       0.01639261      -0.01117663      -0.01803854      -0.00811339
H        0.70823936       2.67303049       1.41349871       0.04303624      -0.03000486      -0.01488789      -0.04451973      -0.01458541      -0.00466794
H        1.44504920       1.29199676       1.87873182       0.04184372      -0.00656978      -0.00330847      -0.01542157       0.00293374      -0.00444343
N        0.10886095       1.87589992      -1.05898395      -0.01330296      -0.00483408      -0.05693188       0.00637357      -0.00829512      -0.01014900
H        0.01069047       2.87502212      -0.96091972       0.01396206      -0.02491124       0.01406655       0.01674958      -0.00380232      -0.02087152
H       -0.82963400       1.51015810      -0.82999416      -0.01613865       0.01257984       0.04554401       0.00362296       0.00898260      -0.00226304
13
Properties=species:S:1:pos:R:3:mp2_forces:R:3:forces:R:3 R1=H R2=H R3=NH2 R4=NH2 lg=Br nu=Br rxn-id=202 mp2_energy=-145181.04044013427 energy=-145180.87333441485 free_energy=-145181.0404384687 pbc="F F F"
C        1.03901752      -0.04807997      -0.14879093       0.04071189       0.02932808      -0.02090016       0.00116578      -0.00090452      -0.00362094
C        1.07485548       1.44941719      -0.05901735      -0.01031407       0.04728772      -0.01105766      -0.00084162      -0.00179565      -0.00105599
H        2.07125388       1.73102243      -0.41324014      -0.01159507      -0.01339516      -0.03875998       0.00108827       0.00100429       0.00405430
Br      -2.94845046       1.02943086      -0.72937319      -0.00747166      -0.03212426      -0.02780399      -0.00054452       0.00357507       0.01912239
Br       3.68499508       0.08193457       2.30162151      -0.02839698       0.03249646       0.08052242      -0.00066028       0.00440847      -0.00463361
H        1.16764591      -0.34347142      -1.17904471      -0.07810702       0.04229911       0.00661562       0.00957341      -0.00131778      -0.00165941
H        1.83963593      -0.44395138       0.48118375       0.03363794      -0.04281685       0.01050884       0.00149568      -0.00079125       0.00246507
N        0.85131484       1.82010360       1.33261677      -0.00786544      -0.00933499       0.01639261      -0.00732214      -0.00443660      -0.00065049
H        1.04512746       2.81286225       1.43486891       0.04303624      -0.03000486      -0.01488789      -0.01069027      -0.00343666       0.00123043
H        1.56662241       1.34405080       1.89402004       0.04184372      -0.00656978      -0.00330847      -0.00806434      -0.00355276       0.00088178
N        0.10107827       1.99853271      -0.97006769      -0.01330296      -0.00483408      -0.05693188       0.00354354      -0.00017701      -0.00446346
H       -0.04547623       2.97270444      -0.78150080       0.01396206      -0.02491124       0.01406655       0.01179288       0.00028833      -0.01124420
H       -0.81918549       1.55597972      -0.84293781      -0.01613865       0.01257984       0.04554401      -0.00053639       0.00713608      -0.00042589
13
Properties=species:S:1:pos:R:3:mp2_forces:R:3:forces:R:3 R1=H R2=H R3=NH2 R4=NH2 lg=Br nu=Br rxn-id=202 mp2_energy=-145181.04044013427 energy=-145180.8555887278 free_energy=-145181.0404384687 pbc="F F F"
C        0.79533491      -0.00856618      -0.08807354       0.04071189       0.02932808      -0.02090016      -0.02034707      -0.00128734       0.02175597
C        1.06667589       1.46737191      -0.01260349      -0.01031407       0.04728772      -0.01105766      -0.00686485      -0.00168355       0.01037268
H        2.09335924       1.60172825      -0.36725340      -0.01159507      -0.01339516      -0.03875998      -0.00856431      -0.01281409      -0.00296563
Br      -2.68802263       0.37241685      -0.98569207      -0.00747166      -0.03212426      -0.02780399      -0.00560283       0.01467877      -0.02354562
Br       3.79826737       0.21972707       2.20878247      -0.02839698       0.03249646       0.08052242       0.00227536      -0.01777680      -0.01786308
H        0.66475748      -0.31846622      -1.11160130      -0.07810702       0.04229911       0.00661562       0.03331056      -0.00604131      -0.01263891
H        1.61031536      -0.53451835       0.40327150       0.03363794      -0.04281685       0.01050884       0.02273622      -0.00062980       0.00132752
N        0.91672983       1.84787876       1.38671277      -0.00786544      -0.00933499       0.01639261       0.00172159       0.01354797       0.00602511
H        1.13712476       2.83364741       1.47296290       0.04303624      -0.03000486      -0.01488789       0.00672607       0.01733590       0.00037058
H        1.65435689       1.36143720       1.90877333       0.04184372      -0.00656978      -0.00330847       0.00070274       0.01290736       0.00629622
N        0.17903960       2.16501908      -0.90592391      -0.01330296      -0.00483408      -0.05693188      -0.00950874      -0.00382761       0.00567357
H        0.18463913       3.15126699      -0.73293781       0.01396206      -0.02491124       0.01406655      -0.00746349      -0.00800376      -0.00144666
H       -0.78414322       1.80159303      -0.85607908      -0.01613865       0.01257984       0.04554401      -0.00912125      -0.00640574       0.00663827
13
Properties=species:S:1:pos:R:3:mp2_forces:R:3:forces:R:3 R1=H R2=H R3=NH2 R4=NH2 lg=Br nu=Br rxn-id=202 mp2_energy=-145181.04044013427 energy=-145180.88536708854 free_energy=-145181.0404384687 pbc="F F F"
C        1.07176897      -0.03706607      -0.47513703       0.04071189       0.02932808      -0.02090016       0.02215865       0.01036099      -0.03084431
C        1.21509668       1.42934814      -0.07972592      -0.01031407       0.04728772      -0.01105766       0.00605852       0.01244724      -0.01912654
H        2.26879658       1.71223956      -0.19665475      -0.01159507      -0.01339516      -0.03875998       0.00638310       0.01999652      -0.00523869
Br      -2.63578417       0.40395658      -0.68232033      -0.00747166      -0.03212426      -0.02780399       0.00894274       0.01798715      -0.03719563
Br       3.93608740       0.83655283       2.21640709      -0.02839698       0.03249646       0.08052242      -0.02642979      -0.01766815      -0.00673743
H        0.10604619      -0.20555703      -0.91037791      -0.07810702       0.04229911       0.00661562      -0.19316241       0.02219554       0.04585782
H        1.16319580      -0.66400207       0.39447313       0.03363794      -0.04281685       0.01050884       0.19989990      -0.05985037       0.11189361
N        0.82948016       1.52676929       1.33654037      -0.00786544      -0.00933499       0.01639261      -0.00594421      -0.01809774      -0.01737159
H        0.74132011       2.51682991       1.55078827       0.04303624      -0.03000486      -0.01488789      -0.02469948      -0.02582986       0.00104408
H        1.65705891       1.22070497       1.87042705       0.04184372      -0.00656978      -0.00330847      -0.00516582      -0.00695707      -0.01614375
N        0.40639786       2.18405272      -0.99941391      -0.01330296      -0.00483408      -0.05693188       0.00848982       0.01888780      -0.01349206
H        0.43861454       3.17193928      -0.76941080       0.01396206      -0.02491124       0.01406655      -0.00334999       0.01594099       0.00979452
H       -0.56964443       1.86476771      -0.93525689      -0.01613865       0.01257984       0.04554401       0.00681897       0.01058694      -0.02244001
13
Properties=species:S:1:pos:R:3:mp2_forces:R:3:forces:R:3 R1=H R2=H R3=NH2 R4=NH2 lg=Br nu=Br rxn-id=202 mp2_energy=-145181.04044013427 energy=-145180.84613126036 free_energy=-145181.0404384687 pbc="F F F"
C        0.97326376      -0.11190163      -0.27831713       0.04071189       0.02932808      -0.02090016      -0.00567312      -0.00459774      -0.00453811
C        1.20000603       1.35206922       0.02594429      -0.01031407       0.04728772      -0.01105766      -0.00002586      -0.00614772      -0.00051123
H        2.25308117       1.59378322      -0.17791861      -0.01159507      -0.01339516      -0.03875998       0.00198284      -0.00928356       0.00410070
Br      -2.68592933       0.39320788      -0.47008434      -0.00747166      -0.03212426      -0.02780399       0.00216968       0.00973266       0.00044857
Br       4.04982794       0.99146699       2.20614507      -0.02839698       0.03249646       0.08052242       0.01231377       0.02498990       0.00210405
H        1.26295355      -0.32139365      -1.30028293      -0.07810702       0.04229911       0.00661562      -0.00562480      -0.00191826      -0.00257093
H       -0.08594072      -0.32594742      -0.14748012       0.03363794      -0.04281685       0.01050884      -0.00918907       0.00239869      -0.00690201
N        0.90461301       1.59103185       1.44286874      -0.00786544      -0.00933499       0.01639261      -0.00070754      -0.00716456       0.00081189
H        0.81385123       2.58540704       1.56078146       0.04303624      -0.03000486      -0.01488789      -0.00919697      -0.00842787       0.00032139
H        1.77042219       1.34107409       1.95947255       0.04184372      -0.00656978      -0.00330847       0.00177760       0.00098794       0.00016688
N        0.36239546       2.05209143      -0.91616421      -0.01330296      -0.00483408      -0.05693188       0.00449818      -0.00040524       0.00104653
H        0.42531105       3.05676947      -0.77488850       0.01396206      -0.02491124       0.01406655       0.00438375      -0.00047144       0.00655451
H       -0.61542074       1.76287733      -0.80973790      -0.01613865       0.01257984       0.04554401       0.00329153       0.00030719      -0.00103226
13
Properties=species:S:1:pos:R:3:mp2_forces:R:3:forces:R:3 R1=H R2=H R3=NH2 R4=NH2 lg=Br nu=Br rxn-id=202 mp2_energy=-145181.04044013427 energy=-145180.81378105545 free_energy=-145181.0404384687 pbc="F F F"
C        1.02013669      -0.04162017      -0.23381598       0.04071189       0.02932808      -0.02090016      -0.00328447      -0.00480593      -0.00114149
C        1.20329296       1.43993379       0.00923129      -0.01031407       0.04728772      -0.01105766      -0.00029816      -0.00495319       0.00096652
H        2.24436277       1.69800441      -0.23062540      -0.01159507      -0.01339516      -0.03875998       0.00140691      -0.00651153       0.00376376
Br      -2.65447906       0.12138010      -0.40135165      -0.00747166      -0.03212426      -0.02780399      -0.01331774       0.01599637      -0.01349875
Br       3.86239561       0.54866199       2.21643051      -0.02839698       0.03249646       0.08052242       0.02810047       0.04031322       0.00269350
H        1.35486764      -0.28815245      -1.23251191      -0.07810702       0.04229911       0.00661562      -0.00910256      -0.00571351      -0.00252930
H       -0.03521452      -0.28449885      -0.12929808       0.03363794      -0.04281685       0.01050884      -0.00634867      -0.00129493       0.00260667
N        0.91810030       1.73741948       1.41249118      -0.00786544      -0.00933499       0.01639261      -0.00386783      -0.01135699       0.00111439
H        0.95728773       2.73824372       1.51759539       0.04303624      -0.03000486      -0.01488789       0.00091090      -0.01047191       0.00264014
H        1.73275860       1.37763015       1.94922199       0.04184372      -0.00656978      -0.00330847      -0.00374043      -0.01363888       0.00032401
N        0.32004533       2.07492078      -0.93849813      -0.01330296      -0.00483408      -0.05693188       0.00263232       0.00104565       0.00039427
H        0.34567711       3.08603095      -0.82646404       0.01396206      -0.02491124       0.01406655       0.00487067      -0.00042170       0.00702898
H       -0.64079657       1.75258191      -0.79206680      -0.01613865       0.01257984       0.04554401       0.00203860       0.00181332      -0.00436268
13
Properties=species:S:1:pos:R:3:mp2_forces:R:3:forces:R:3 R1=H R2=H R3=NH2 R4=NH2 lg=Br nu=Br rxn-id=202 mp2_energy=-145181.04044013427 energy=-145180.71249486055 free_energy=-145181.0404384687 pbc="F F F"
C        1.21489777       0.09560390      -0.23113953       0.04071189       0.02932808      -0.02090016      -0.00774467      -0.00641157      -0.00824429
C        1.23764668       1.59595517      -0.06772491      -0.01031407       0.04728772      -0.01105766      -0.00312041      -0.00006345      -0.00816468
H        2.22661523       1.95551382      -0.38363560      -0.01159507      -0.01339516      -0.03875998      -0.00713652       0.00524433      -0.01790525
Br      -2.46151102      -0.18304002      -0.06073297      -0.00747166      -0.03212426      -0.02780399      -0.01452473       0.01394618      -0.01278889