16
Properties=species:S:1:pos:R:3:mp2_forces:R:3:forces:R:3 R1=NH2 R2=CH3 R3=CN R4=CN lg=Cl nu=F rxn-id=2712 mp2_energy=-24953.01051329611 energy=-24953.01051329611 free_energy=-24953.01051329611 pbc="F F F"
C        0.55153477      -0.11465068       0.03437607       0.01770043      -0.03139629       0.00093179       0.01770043      -0.03139629       0.00093179
C        1.10847674       1.32109794       0.01296904      -0.00784436       0.01479956       0.00513571      -0.00784436       0.01479956       0.00513571
H        2.23563836       1.07484382      -0.02456598      -0.01419576       0.02151736       0.00148445      -0.01419576       0.02151736       0.00148445
Cl      -1.26952489      -0.07722884      -0.03335739       0.00058851      -0.00730157       0.07018223       0.00058851      -0.00730157       0.07018223
F        3.41065784       0.03261086      -0.17762708       0.01670752       0.06026997      -0.02294881       0.01670752       0.06026997      -0.02294881
N        1.04560555      -0.72439601      -1.16984147      -0.02528114      -0.01755569       0.00855291      -0.02528114      -0.01755569       0.00855291
H        0.77469153      -1.70281272      -1.16479763       0.06759099      -0.00260456      -0.01577479       0.06759099      -0.00260456      -0.01577479
H        2.07585791      -0.64179712      -1.05344829      -0.02175612      -0.05119886      -0.02623508      -0.02175612      -0.05119886      -0.02623508
C        0.98506750      -0.81872074       1.31247102       0.00245899      -0.03203097       0.03235816       0.00245899      -0.03203097       0.03235816
H        2.07714278      -0.79792186       1.28069586       0.01252710       0.02052074      -0.00902924       0.01252710       0.02052074      -0.00902924
H        0.61562037      -0.34186786       2.22235761      -0.06801058       0.05593890      -0.03120362      -0.06801058       0.05593890      -0.03120362
H        0.63582872      -1.85354713       1.29333866      -0.04739874      -0.02753967      -0.01672212      -0.04739874      -0.02753967      -0.01672212
C        0.76269536       2.08877380       1.20118844       0.01074045      -0.07534280      -0.03409359       0.01074045      -0.07534280      -0.03409359
N        0.49435367       2.69767500       2.16950632       0.01792966       0.03348069       0.04018919       0.01792966       0.03348069       0.04018919
C        0.70555480       2.04559505      -1.18677079       0.03200233       0.01491522       0.05945938       0.03200233       0.01491522       0.05945938
N        0.39207182       2.69167400      -2.11586319       0.00624072       0.02352797      -0.06228656       0.00624072       0.02352797      -0.06228656
16
Properties=species:S:1:pos:R:3:mp2_forces:R:3:forces:R:3 R1=NH2 R2=CH3 R3=CN R4=CN lg=Cl nu=F rxn-id=2712 mp2_energy=-24953.01051329611 energy=-24953.017974579463 free_energy=-24953.01051329611 pbc="F F F"
C        0.54733775      -0.12186584       0.03050104       0.01770043      -0.03139629       0.00093179      -0.00144833      -0.00072270       0.00004773
C        1.10444725       1.31241816       0.00854350      -0.00784436       0.01479956       0.00513571      -0.00048283      -0.00217983      -0.00047820
H        2.25205706       1.05488010      -0.03627506      -0.01419576       0.02151736       0.00148445       0.00601400      -0.00716293      -0.00212684
Cl      -1.28064864      -0.07979570      -0.01587700       0.00058851      -0.00730157       0.07018223      -0.00256016       0.00074451      -0.00092556
F        3.40452201       0.15074795      -0.20008752       0.01670752       0.06026997      -0.02294881      -0.00234644       0.02247453      -0.00292680
N        1.03023314      -0.74397584      -1.17260052      -0.02528114      -0.01755569       0.00855291      -0.00274429      -0.00337296       0.00080163
H        0.80200445      -1.73071453      -1.14586503       0.06759099      -0.00260456      -0.01577479       0.00698941      -0.00575365       0.00755906
H        2.05428259      -0.62868975      -1.09908955      -0.02175612      -0.05119886      -0.02623508      -0.00389716       0.00538228      -0.00686857
C        0.96859520      -0.81380484       1.31807008       0.00245899      -0.03203097       0.03235816      -0.00353701      -0.00140053       0.00045161
H        2.06161044      -0.77742945       1.31670981       0.01252710       0.02052074      -0.00902924      -0.00366686      -0.00224165       0.00242875
H        0.56702605      -0.32042748       2.20347541      -0.06801058       0.05593890      -0.03120362      -0.00283828      -0.00093638       0.00051950
H        0.62376766      -1.85274680       1.30351710      -0.04739874      -0.02753967      -0.01672212      -0.00426036      -0.00126515       0.00069492
C        0.77806196       2.06123253       1.20903039       0.01074045      -0.07534280      -0.03409359       0.00259905      -0.00200512      -0.00057521
N        0.54248255       2.64660255       2.20129230       0.01792966       0.03348069       0.04018919       0.00653745      -0.00132601       0.00011964
C        0.71472455       2.04348081      -1.18685721       0.03200233       0.01491522       0.05945938       0.00132840      -0.00112742       0.00050204
N        0.43076878       2.67941564      -2.13385655       0.00624072       0.02352797      -0.06228656       0.00431343       0.00089302       0.00077630
16
Properties=species:S:1:pos:R:3:mp2_forces:R:3:forces:R:3 R1=NH2 R2=CH3 R3=CN R4=CN lg=Cl nu=F rxn-id=2712 mp2_energy=-24953.01051329611 energy=-24953.01710851933 free_energy=-24953.01051329611 pbc="F F F"
C        0.54854142      -0.12129511       0.03037422       0.01770043      -0.03139629       0.00093179      -0.00237188      -0.00122848      -0.00020726
C        1.10515735       1.31414182       0.00853935      -0.00784436       0.01479956       0.00513571      -0.00145834      -0.00197464      -0.00005338
H        2.24679570       1.06119696      -0.03512210      -0.01419576       0.02151736       0.00148445       0.00106262      -0.00419899      -0.00104468
Cl      -1.27842345      -0.07940197      -0.01595959       0.00058851      -0.00730157       0.07018223      -0.00307444      -0.00022045      -0.00138560
F        3.40720768       0.13031573      -0.19721210       0.01670752       0.06026997      -0.02294881      -0.00124874       0.01553598      -0.00650989
N        1.03328134      -0.74129020      -1.17298137      -0.02528114      -0.01755569       0.00855291      -0.00228022      -0.00332615       0.00081587
H        0.79544551      -1.72570839      -1.15296027       0.06759099      -0.00260456      -0.01577479       0.01053186      -0.00735489       0.00980146
H        2.05847178      -0.63455914      -1.09141279      -0.02175612      -0.05119886      -0.02623508      -0.00274787       0.00825437      -0.00608645
C        0.97137652      -0.81251835       1.31773614       0.00245899      -0.03203097       0.03235816      -0.00367744      -0.00125272       0.00014475
H        2.06446821      -0.77399161       1.31521702       0.01252710       0.02052074      -0.00902924      -0.00367694      -0.00234376       0.00053158
H        0.56801355      -0.32065147       2.20314331      -0.06801058       0.05593890      -0.03120362      -0.00210254      -0.00003813       0.00020702
H        0.62884162      -1.85214974       1.30231967      -0.04739874      -0.02753967      -0.01672212      -0.00485055      -0.00099347       0.00142855
C        0.77650953       2.06290092       1.20918513       0.01074045      -0.07534280      -0.03409359       0.00182710      -0.00169951       0.00020583
N        0.53771895       2.64814432       2.20058408       0.01792966       0.03348069       0.04018919       0.00698550      -0.00068345       0.00098091
C        0.71283090       2.04454041      -1.18730071       0.03200233       0.01491522       0.05945938       0.00129543      -0.00047007       0.00052296
N        0.42503622       2.67965331      -2.13351879       0.00624072       0.02352797      -0.06228656       0.00578645       0.00199437       0.00064833
16
Properties=species:S:1:pos:R:3:mp2_forces:R:3:forces:R:3 R1=NH2 R2=CH3 R3=CN R4=CN lg=Cl nu=F rxn-id=2712 mp2_energy=-24953.01051329611 energy=-24953.00617686202 free_energy=-24953.01051329611 pbc="F F F"
C        0.56148418      -0.11459910       0.03038252       0.01770043      -0.03139629       0.00093179      -0.01368090      -0.00466984      -0.00131635
C        1.11459427       1.32481420       0.00685933      -0.00784436       0.01479956       0.00513571      -0.00845234      -0.00748727       0.00131067
H        2.23882210       1.08626620      -0.03207901      -0.01419576       0.02151736       0.00148445      -0.00611889      -0.01279769       0.00080878
Cl      -1.26077437      -0.07217377      -0.01600665       0.00058851      -0.00730157       0.07018223      -0.01550975      -0.00756893      -0.00289272
F        3.41702005       0.03043519      -0.15256740       0.01670752       0.06026997      -0.02294881      -0.00044582       0.02555995      -0.02643261
N        1.05025402      -0.72248711      -1.17715006      -0.02528114      -0.01755569       0.00855291      -0.00930043      -0.00759354       0.00183085
H        0.73288735      -1.68219522      -1.21451554       0.06759099      -0.00260456      -0.01577479       0.04349379      -0.03103081       0.03855506
H        2.07853727      -0.68814374      -1.04754544      -0.02175612      -0.05119886      -0.02623508      -0.00569374       0.04212227      -0.01562903
C        0.99129649      -0.80359747       1.31692261       0.00245899      -0.03203097       0.03235816      -0.01142038      -0.00291105      -0.00169782
H        2.08436016      -0.74991970       1.31339970       0.01252710       0.02052074      -0.00902924      -0.01105496      -0.00531953      -0.01026841
H        0.57335075      -0.32307439       2.20162625      -0.06801058       0.05593890      -0.03120362      -0.00039031       0.00227645       0.00083373
H        0.66564164      -1.84808090       1.29270061      -0.04739874      -0.02753967      -0.01672212      -0.01452678      -0.00208915       0.00581893
C        0.77038577       2.07188416       1.20723309       0.01074045      -0.07534280      -0.03409359       0.00213949      -0.00408338       0.00158750
N        0.50493212       2.65214275       2.19423342       0.01792966       0.03348069       0.04018919       0.01980368       0.00322677       0.00237225
C        0.70019691       2.04743396      -1.19005569       0.03200233       0.01491522       0.05945938       0.00572708       0.00042620       0.00229341
N        0.37828414       2.67062246      -2.13280655       0.00624072       0.02352797      -0.06228656       0.02543026       0.01193955       0.00282578
16
Properties=species:S:1:pos:R:3:mp2_forces:R:3:forces:R:3 R1=NH2 R2=CH3 R3=CN R4=CN lg=Cl nu=F rxn-id=2712 mp2_energy=-24953.01051329611 energy=-24952.981350917704 free_energy=-24953.01051329611 pbc="F F F"
C        0.58299241      -0.10755823       0.03232951       0.01770043      -0.03139629       0.00093179      -0.04312433      -0.00782984      -0.00293206
C        1.12754010       1.33656720       0.00535790      -0.00784436       0.01479956       0.00513571      -0.01690843      -0.02125138       0.00261791
H        2.24800770       1.10638375      -0.03356049      -0.01419576       0.02151736       0.00148445      -0.01361801      -0.05063688       0.00469921
Cl      -1.23639146      -0.06243446      -0.01288414       0.00058851      -0.00730157       0.07018223      -0.04479072      -0.01249237      -0.00789184
F        3.41728539      -0.00939976      -0.11480222       0.01670752       0.06026997      -0.02294881       0.01489849       0.03136226      -0.03840156
N        1.06549865      -0.71054555      -1.17998272      -0.02528114      -0.01755569       0.00855291      -0.02325755      -0.00449354       0.00405649
H        0.66506712      -1.63343609      -1.27538488       0.06759099      -0.00260456      -0.01577479       0.08351983      -0.06918867       0.06952692
H        2.08815212      -0.75410074      -1.02295831      -0.02175612      -0.05119886      -0.02623508      -0.00478686       0.10513565      -0.00985753
C        1.00850043      -0.79878392       1.32004744       0.00245899      -0.03203097       0.03235816      -0.02386788      -0.00095587      -0.00747196
H        2.10089565      -0.74062018       1.33148066       0.01252710       0.02052074      -0.00902924      -0.02178168       0.00977062      -0.04590840
H        0.57156099      -0.32631617       2.19995786      -0.06801058       0.05593890      -0.03120362       0.00654879       0.00211864       0.00655981
H        0.68867656      -1.84484392       1.28416350      -0.04739874      -0.02753967      -0.01672212      -0.01490951      -0.00398237       0.01046870
C        0.76767011       2.07847912       1.20552047       0.01074045      -0.07534280      -0.03409359       0.00756216      -0.00925500       0.00134030
N        0.47585468       2.64759546       2.19149349       0.01792966       0.03348069       0.04018919       0.03602326       0.00883508      -0.00007359
C        0.69115392       2.04684475      -1.19304965       0.03200233       0.01491522       0.05945938       0.01387785      -0.00049464       0.00508975
N        0.33880844       2.65149625      -2.13709722       0.00624072       0.02352797      -0.06228656       0.04461460       0.02335831       0.00817785
16
Properties=species:S:1:pos:R:3:mp2_forces:R:3:forces:R:3 R1=NH2 R2=CH3 R3=CN R4=CN lg=Cl nu=F rxn-id=2712 mp2_energy=-24953.01051329611 energy=-24952.901990089245 free_energy=-24953.01051329611 pbc="F F F"
C        0.63076243      -0.09892246       0.03538110       0.01770043      -0.03139629       0.00093179      -0.11569423      -0.00825584      -0.00360456
C        1.14623426       1.36012967       0.00227944      -0.00784436       0.01479956       0.00513571      -0.03002172      -0.04873169       0.00660898
H        2.26322588       1.16203829      -0.03899862      -0.01419576       0.02151736       0.00148445      -0.02082684      -0.19007974       0.01170643
Cl      -1.18651611      -0.04933099      -0.00499605       0.00058851      -0.00730157       0.07018223      -0.10758069      -0.01517553      -0.01941473
F        3.40091616      -0.04185276      -0.07113655       0.01670752       0.06026997      -0.02294881       0.07519535       0.03972361      -0.05097151
N        1.09128050      -0.70603355      -1.18448102      -0.02528114      -0.01755569       0.00855291      -0.04889947       0.01635038       0.01699348
H        0.57082083      -1.55659297      -1.35342565       0.06759099      -0.00260456      -0.01577479       0.13432592      -0.12821730       0.08912873
H        2.09303541      -0.87267593      -1.01141673      -0.02175612      -0.05119886      -0.02623508       0.00987248       0.23212282       0.04651127
C        1.03486054      -0.79746177       1.32830473       0.00245899      -0.03203097       0.03235816      -0.04796091       0.01077744      -0.02083203
H        2.12481443      -0.74986443       1.38324701       0.01252710       0.02052074      -0.00902924      -0.03511379       0.06473951      -0.14559093
H        0.56302189      -0.32909531       2.19249017      -0.06801058       0.05593890      -0.03120362       0.02247955      -0.00280702       0.02742148
H        0.70648466      -1.84058676       1.27205155      -0.04739874      -0.02753967      -0.01672212      -0.00453081      -0.00560602       0.02051990
C        0.76004161       2.08865134       1.20413903       0.01074045      -0.07534280      -0.03409359       0.02476182      -0.01322593       0.00028842
N        0.43759510       2.63762205       2.19202221       0.01792966       0.03348069       0.04018919       0.04945851       0.01607198      -0.00700359
C        0.67562507       2.04757100      -1.19867928       0.03200233       0.01491522       0.05945938       0.03377219      -0.00014464       0.01026363
N        0.28907017       2.62573209      -2.14615014       0.00624072       0.02352797      -0.06228656       0.06076265       0.03245796       0.01797504
16
Properties=species:S:1:pos:R:3:mp2_forces:R:3:forces:R:3 R1=NH2 R2=CH3 R3=CN R4=CN lg=Cl nu=F rxn-id=2712 mp2_energy=-24953.01051329611 energy=-24952.723132453273 free_energy=-24953.01051329611 pbc="F F F"
C        0.69969604      -0.09386481       0.03745477       0.01770043      -0.03139629       0.00093179      -0.21660807       0.00026762       0.00048065
C        1.16424225       1.38924965      -0.00187320      -0.00784436       0.01479956       0.00513571      -0.05056673      -0.06601810       0.01129806
H        2.27573322       1.27556822      -0.04640894      -0.01419576       0.02151736       0.00148445      -0.02713615      -0.42879594       0.01967388
Cl      -1.12258247      -0.03985928       0.00625193       0.00058851      -0.00730157       0.07018223      -0.14068019      -0.01100447      -0.03123959
F        3.35598596      -0.06643507      -0.03998469       0.01670752       0.06026997      -0.02294881       0.21247934       0.05030439      -0.06072613
N        1.12053906      -0.71588823      -1.19450584      -0.02528114      -0.01755569       0.00855291      -0.08719883       0.04644097       0.04285842
H        0.49032514      -1.47984904      -1.40670419       0.06759099      -0.00260456      -0.01577479       0.15428637      -0.18149106       0.04618496
H        2.08717033      -1.01172372      -1.03874719      -0.02175612      -0.05119886      -0.02623508       0.03193386       0.37000980       0.17285984
C        1.06346625      -0.80359527       1.34071526       0.00245899      -0.03203097       0.03235816      -0.07851615       0.02791465      -0.03598163
H        2.14575096      -0.78691854       1.47055484       0.01252710       0.02052074      -0.00902924      -0.03404424       0.14674503      -0.28776928
H        0.54850580      -0.32819911       2.17602287      -0.06801058       0.05593890      -0.03120362       0.03475222      -0.01614472       0.06551837
H        0.71065459      -1.83736681       1.25921523      -0.04739874      -0.02753967      -0.01672212       0.00801872      -0.01052039       0.03440652
C        0.74562231       2.09643896       1.20393160       0.01074045      -0.07534280      -0.03409359       0.04702635       0.00217041       0.00126788
N        0.40869801       2.62769232       2.19637503       0.01792966       0.03348069       0.04018919       0.03933036       0.02049113      -0.00935785
C        0.65524015       2.04771621      -1.20485373       0.03200233       0.01491522       0.05945938       0.05673906       0.01657233       0.01029986
N        0.25222523       2.60636203      -2.15681256       0.00624072       0.02352797      -0.06228656       0.05018406       0.03305835       0.02022605
16
Properties=species:S:1:pos:R:3:mp2_forces:R:3:forces:R:3 R1=NH2 R2=CH3 R3=CN R4=CN lg=Cl nu=F rxn-id=2712 mp2_energy=-24953.01051329611 energy=-24952.420262738775 free_energy=-24953.01051329611 pbc="F F F"
C        0.77886571      -0.09395066       0.03723000       0.01770043      -0.03139629       0.00093179      -0.48502353       0.02323950       0.00838549
C        1.18280059       1.41335723      -0.00609088      -0.00784436       0.01479956       0.00513571      -0.08736048      -0.06441434       0.01240764
H        2.28568454       1.43224992      -0.05378634      -0.01419576       0.02151736       0.00148445      -0.02204365      -0.58449813       0.02809916
Cl      -1.07113445      -0.03584319       0.01755292       0.00058851      -0.00730157       0.07018223       0.03025453      -0.00812551      -0.03492123
F        3.27820456      -0.08527655      -0.01772443       0.01670752       0.06026997      -0.02294881       0.46756179       0.03425171      -0.06830994
N        1.15245571      -0.73287297      -1.21021754      -0.02528114      -0.01755569       0.00855291      -0.15769729       0.07606646       0.05395628
H        0.43383284      -1.41330164      -1.42383485       0.06759099      -0.00260456      -0.01577479       0.14579258      -0.23270557      -0.06882336
H        2.07540289      -1.14731737      -1.10173855      -0.02175612      -0.05119886      -0.02623508       0.02387594       0.43767961       0.32512716
C        1.09209885      -0.81362249       1.35392662       0.00245899      -0.03203097       0.03235816      -0.11826786       0.03919304      -0.04924943
H        2.15801418      -0.83950128       1.57629315       0.01252710       0.02052074      -0.00902924      -0.01678848       0.20413298      -0.38425577
H        0.53491718      -0.32268718       2.15198670      -0.06801058       0.05593890      -0.03120362       0.03762671      -0.03646469       0.11251932
H        0.70867896      -1.83366264       1.24639158      -0.04739874      -0.02753967      -0.01672212       0.01935993      -0.02705835       0.05143888
C        0.72873431       2.09559917       1.20347064       0.01074045      -0.07534280      -0.03409359       0.06413100       0.03773941       0.00557147
N        0.39472444       2.62010457       2.19984723       0.01792966       0.03348069       0.04018919       0.00903904       0.01820786      -0.00117199
C        0.63440587       2.04169131      -1.20860469       0.03200233       0.01491522       0.05945938       0.07490012       0.05664121       0.00213320
N        0.23358667       2.59436127      -2.16407035       0.00624072       0.02352797      -0.06228656       0.01463965       0.02611481       0.00709311
16
Properties=species:S:1:pos:R:3:mp2_forces:R:3:forces:R:3 R1=NH2 R2=CH3 R3=CN R4=CN lg=Cl nu=F rxn-id=2712 mp2_energy=-24953.01051329611 energy=-24952.052381581747 free_energy=-24953.01051329611 pbc="F F F"
C        0.87581165      -0.09859035       0.03553834       0.01770043      -0.03139629       0.00093179      -1.55712346       0.05787502       0.01336741
C        1.20030911       1.42621060      -0.00861300      -0.00784436       0.01479956       0.00513571      -0.08410529      -0.06428591       0.00893938
H        2.29013646       1.54901442      -0.05952515      -0.01419576       0.02151736       0.00148445       0.01637616      -0.49789873       0.02491825
Cl      -1.07726459      -0.03423130       0.02444818       0.00058851      -0.00730157       0.07018223       0.70549677      -0.01642246      -0.01713056
F        3.18472878      -0.09233037      -0.00404685       0.01670752       0.06026997      -0.02294881       0.80013349       0.01227714      -0.06485905
N        1.18400953      -0.74811074      -1.22096656      -0.02528114      -0.01755569       0.00855291      -0.16487273       0.09385181       0.03350604
H        0.40459979      -1.36661499      -1.41025239       0.06759099      -0.00260456      -0.01577479       0.13574953      -0.24988425      -0.17763664
H        2.07059313      -1.23496805      -1.16663343      -0.02175612      -0.05119886      -0.02623508       0.01609953       0.36828558       0.37176479
C        1.11569066      -0.82134403       1.36380943       0.00245899      -0.03203097       0.03235816      -0.10235021       0.03760499      -0.05415692
H        2.16127207      -0.87964443       1.65338600       0.01252710       0.02052074      -0.00902924       0.01295435       0.18332122      -0.33906141
H        0.52685875      -0.31563687       2.12940763      -0.06801058       0.05593890      -0.03120362       0.04321103      -0.04476780       0.13252270
H        0.70535670      -1.82834630       1.23599773      -0.04739874      -0.02753967      -0.01672212       0.03683741      -0.04940238       0.06686862
C        0.71608901       2.08799966       1.20236854       0.01074045      -0.07534280      -0.03409359       0.07874542       0.06107219       0.00539173
N        0.39317425       2.61638074       2.20014808       0.01792966       0.03348069       0.04018919      -0.01360513       0.00798486       0.00407489
C        0.61940164       2.03038415      -1.20900945       0.03200233       0.01491522       0.05945938       0.09074012       0.08796260      -0.00353648
N        0.23050589       2.58915536      -2.16542589       0.00624072       0.02352797      -0.06228656      -0.01428699       0.01242612      -0.00497275
16
Properties=species:S:1:pos:R:3:mp2_forces:R:3:forces:R:3 R1=NH2 R2=CH3 R3=CN R4=CN lg=Cl nu=F rxn-id=2712 mp2_energy=-24953.01051329611 energy=-24951.71718204365 free_energy=-24953.01051329611 pbc="F F F"
C        0.99244824      -0.10292887       0.03452911       0.01770043      -0.03139629       0.00093179      -1.35064692       0.02288190       0.00102294
C        1.20662172       1.43101192      -0.00929793      -0.00784436       0.01479956       0.00513571      -0.00312277      -0.01770940       0.00269725
H        2.28892809       1.58626773      -0.06143710      -0.01419576       0.02151736       0.00148445       0.03397479      -0.24438387       0.01093293
Cl      -1.13016082      -0.03301654       0.02569567       0.00058851      -0.00730157       0.07018223       0.53830287      -0.00508247       0.00017834
F        3.12478144      -0.09331204       0.00081351       0.01670752       0.06026997      -0.02294881       0.56273782       0.00423838      -0.04006460
N        1.19636461      -0.75515483      -1.22347021      -0.02528114      -0.01755569       0.00855291      -0.03391327       0.03331701       0.01575608
H        0.39440908      -1.34783464      -1.39702836       0.06759099      -0.00260456      -0.01577479       0.07017516      -0.13353575      -0.12400937
H        2.06936356      -1.26262043      -1.19444168      -0.02175612      -0.05119886      -0.02623508       0.03667405       0.19035424       0.20226843
C        1.12333731      -0.82412056       1.36788104       0.00245899      -0.03203097       0.03235816      -0.01392695       0.01236408      -0.01308956
H        2.16026460      -0.89311521       1.67889310       0.01252710       0.02052074      -0.00902924       0.02413553       0.09404205      -0.17268707
H        0.52342247      -0.31237632       2.11944647      -0.06801058       0.05593890      -0.03120362       0.02678246      -0.02555590       0.07401698
H        0.70281388      -1.82469527       1.23096584      -0.04739874      -0.02753967      -0.01672212       0.02889301      -0.03337428       0.04334643
C        0.71025770       2.08340898       1.20197441       0.01074045      -0.07534280      -0.03409359       0.04550422       0.03689759       0.00041761
N        0.39429494       2.61575712       2.19986123       0.01792966       0.03348069       0.04018919      -0.00795465       0.00363130       0.00331663
C        0.61259397       2.02380590      -1.20873635       0.03200233       0.01491522       0.05945938       0.05248480       0.05654869       0.00040663
N        0.23153206       2.58825058      -2.16501756       0.00624072       0.02352797      -0.06228656      -0.01010016       0.00536642      -0.00450967
16
Properties=species:S:1:pos:R:3:mp2_forces:R:3:forces:R:3 R1=NH2 R2=CH3 R3=CN R4=CN lg=Cl nu=F rxn-id=2712 mp2_energy=-24953.01051329611 energy=-24951.609908971874 free_energy=-24953.01051329611 pbc="F F F"
C        1.12615751      -0.10519518       0.03441557       0.01770043      -0.03139629       0.00093179       0.19374632      -0.00295417      -0.00031315
C        1.20695744       1.43275077      -0.00958588      -0.00784436       0.01479956       0.00513571      -0.00076093       0.00051243      -0.00055397
H        2.28559688       1.61042372      -0.06258152      -0.01419576       0.02151736       0.00148445      -0.00531896       0.03515243      -0.00228266
Cl      -1.18351719      -0.03252911       0.02563232       0.00058851      -0.00730157       0.07018223      -0.06724367       0.00038785      -0.00137541
F        3.06905254      -0.09381918       0.00478345       0.01670752       0.06026997      -0.02294881      -0.08633654      -0.00198729       0.00657884
N        1.19973127      -0.75847396      -1.22502339      -0.02528114      -0.01755569       0.00855291       0.00268498      -0.00192593      -0.00290798
H        0.38743128      -1.33452958      -1.38484834       0.06759099      -0.00260456      -0.01577479      -0.00897618       0.01886596       0.01846736
H        2.06570353      -1.28155325      -1.21442453      -0.02175612      -0.05119886      -0.02623508      -0.00815906      -0.02823966      -0.02817537
C        1.12469093      -0.82529121       1.36919596       0.00245899      -0.03203097       0.03235816       0.00115736      -0.00056082      -0.00003332
H        2.15782309      -0.90208460       1.69614399       0.01252710       0.02052074      -0.00902924      -0.00494827      -0.01004610       0.02792533
H        0.52050144      -0.30996884       2.11206369      -0.06801058       0.05593890      -0.03120362      -0.00626604       0.00253797      -0.01163482
H        0.70023688      -1.82145998       1.22664055      -0.04739874      -0.02753967      -0.01672212      -0.00032014       0.00389531      -0.00689419
C        0.70584608       2.07973297       1.20194351       0.01074045      -0.07534280      -0.03409359      -0.00516104      -0.00609103       0.00024752
N        0.39521317       2.61535751       2.19956279       0.01792966       0.03348069       0.04018919       0.00264993      -0.00066444      -0.00020537
C        0.60738359       2.01821913      -1.20876245       0.03200233       0.01491522       0.05945938      -0.00735138      -0.00866825      -0.00014015
N        0.23246439       2.58774829      -2.16452454       0.00624072       0.02352797      -0.06228656       0.00060362      -0.00021427       0.00129735
16
Properties=species:S:1:pos:R:3:mp2_forces:R:3:forces:R:3 R1=NH2 R2=CH3 R3=CN R4=CN lg=Cl nu=F rxn-id=2712 mp2_energy=-24953.01051329611 energy=-24951.774724753843 free_energy=-24953.01051329611 pbc="F F F"