13
Properties=species:S:1:pos:R:3:mp2_forces:R:3:forces:R:3 R1=H R2=H R3=CN R4=CH3 lg=Br nu=Br rxn-id=103 mp2_energy=-145747.76360143823 energy=-145747.76360143823 free_energy=-145747.76360143823 pbc="F F F"
C        0.60659630      -0.02487841       0.04565825       0.00511184      -0.07371633       0.06408782       0.00511184      -0.07371633       0.06408782
C        1.04254513       1.42666749      -0.05704672       0.01401146       0.00206312       0.00999259       0.01401146       0.00206312       0.00999259
H        2.13907431       1.33863165      -0.07618770       0.02393548       0.00657592       0.00698952       0.02393548       0.00657592       0.00698952
Br      -1.33213322      -0.24169397       0.26491318      -0.03662213       0.05379369      -0.05009748      -0.03662213       0.05379369      -0.05009748
Br       3.85615076      -0.56283850      -0.62431847       0.00003732       0.03648826      -0.04086848       0.00003732       0.03648826      -0.04086848
H        0.89969175      -0.55953020      -0.85380808       0.00546244      -0.00716181       0.01749178       0.00546244      -0.00716181       0.01749178
H        1.06998557      -0.50888917       0.90015871       0.01169805      -0.02694204       0.01053218       0.01169805      -0.02694204       0.01053218
C        0.65914998       2.20325674       1.12204236       0.00296747       0.01052250      -0.01131063       0.00296747       0.01052250      -0.01131063
N        0.36149942       2.86190683       2.04807199      -0.01546999      -0.00571515       0.00530779      -0.01546999      -0.00571515       0.00530779
C        0.58218838       2.11291204      -1.34163189      -0.00611858      -0.00627448       0.00300744      -0.00611858      -0.00627448       0.00300744
H        1.01714108       1.58536511      -2.19368983       0.00570161       0.00217618       0.01576787       0.00570161       0.00217618       0.01576787
H       -0.50626353       2.09945430      -1.42750207      -0.00733255       0.02250089       0.00551280      -0.00733255       0.02250089       0.00551280
H        0.92473315       3.14997560      -1.36221098      -0.00338240      -0.01431078      -0.03641322      -0.00338240      -0.01431078      -0.03641322
13
Properties=species:S:1:pos:R:3:mp2_forces:R:3:forces:R:3 R1=H R2=H R3=CN R4=CH3 lg=Br nu=Br rxn-id=103 mp2_energy=-145747.76360143823 energy=-145747.79081915668 free_energy=-145747.76360143823 pbc="F F F"
C        0.54208132      -0.05100735       0.12650377       0.00511184      -0.07371633       0.06408782       0.00110930       0.00063012       0.00409275
C        1.03331027       1.38353935       0.00235662       0.01401146       0.00206312       0.00999259       0.00021336       0.00097764       0.00374722
H        2.12855853       1.26889755       0.01370345       0.02393548       0.00657592       0.00698952       0.00010046       0.00262065       0.00740295
Br      -1.41959590      -0.16619513       0.14956337      -0.03662213       0.05379369      -0.05009748       0.00154593      -0.00228231      -0.00574665
Br       3.88260057      -0.17192436      -1.07194341       0.00003732       0.03648826      -0.04086848      -0.01359827      -0.00329884      -0.02877220
H        0.90096988      -0.62752088      -0.72228041       0.00546244      -0.00716181       0.01749178       0.00674862       0.00004350       0.00706784
H        0.89784336      -0.51418779       1.04649673       0.01169805      -0.02694204       0.01053218      -0.00349111       0.00299756       0.00686588
C        0.62972498       2.20339074       1.14256097       0.00296747       0.01052250      -0.01131063      -0.00522704       0.00183795       0.00108648
N        0.31153419       2.89027896       2.04140714      -0.01546999      -0.00571515       0.00530779      -0.00977164       0.00234253      -0.00109667
C        0.65883255       2.04580358      -1.32367733      -0.00611858      -0.00627448       0.00300744       0.00460686      -0.00107290       0.00153197
H        1.07768177       1.44550263      -2.13321961       0.00570161       0.00217618       0.01576787       0.01047318      -0.00072049       0.00462267
H       -0.42354596       2.13061671      -1.44151214      -0.00733255       0.02250089       0.00551280       0.00518456      -0.00410371      -0.00353878
H        1.10036353       3.04314551      -1.38551039      -0.00338240      -0.01431078      -0.03641322       0.00210580       0.00002830       0.00273654
13
Properties=species:S:1:pos:R:3:mp2_forces:R:3:forces:R:3 R1=H R2=H R3=CN R4=CH3 lg=Br nu=Br rxn-id=103 mp2_energy=-145747.76360143823 energy=-145747.80305840823 free_energy=-145747.76360143823 pbc="F F F"
C        0.56068365      -0.04195195       0.18136294       0.00511184      -0.07371633       0.06408782       0.00075499       0.00014397      -0.00028530
C        1.03635745       1.39860718       0.05315441       0.01401146       0.00206312       0.00999259       0.00009469       0.00039893       0.00008546
H        2.13016414       1.30826295       0.11458937       0.02393548       0.00657592       0.00698952       0.00006947       0.00101107       0.00075407
Br      -1.39427854      -0.20245542       0.06620116      -0.03662213       0.05379369      -0.05009748       0.00059858       0.00012157       0.00254120
Br       3.68770153      -0.22650262      -1.45917346       0.00003732       0.03648826      -0.04086848      -0.00207183      -0.00314549      -0.00036946
H        0.99995865      -0.62519396      -0.62598889       0.00546244      -0.00716181       0.01749178      -0.00009218       0.00074417      -0.00119459
H        0.85349967      -0.47190243       1.13940195       0.01169805      -0.02694204       0.01053218       0.00221438      -0.00039330      -0.00093177
C        0.55781357       2.22906017       1.15737843       0.00296747       0.01052250      -0.01131063      -0.00124307      -0.00000695      -0.00014737
N        0.17735212       2.92194167       2.02688027      -0.01546999      -0.00571515       0.00530779      -0.00252749      -0.00041449      -0.00038775
C        0.72024313       2.03260957      -1.30252720      -0.00611858      -0.00627448       0.00300744       0.00048902       0.00038777      -0.00002847
H        1.21452309       1.43499398      -2.07042119       0.00570161       0.00217618       0.01576787       0.00122452       0.00068173       0.00021519
H       -0.35418086       2.07936274      -1.48614692      -0.00733255       0.02250089       0.00551280       0.00055877      -0.00016651      -0.00059146
H        1.13052147       3.04350762      -1.35026213      -0.00338240      -0.01431078      -0.03641322      -0.00006984       0.00063754       0.00034026
13
Properties=species:S:1:pos:R:3:mp2_forces:R:3:forces:R:3 R1=H R2=H R3=CN R4=CH3 lg=Br nu=Br rxn-id=103 mp2_energy=-145747.76360143823 energy=-145747.80232399644 free_energy=-145747.76360143823 pbc="F F F"
C        0.55397168      -0.04328753       0.18484860       0.00511184      -0.07371633       0.06408782       0.00218035      -0.00005655      -0.00119779
C        1.03555637       1.39495520       0.05299454       0.01401146       0.00206312       0.00999259       0.00014335       0.00065546      -0.00021915
H        2.12956384       1.29941449       0.10921266       0.02393548       0.00657592       0.00698952       0.00006106       0.00230442       0.00151336
Br      -1.39959402      -0.20314710       0.04292184      -0.03662213       0.05379369      -0.05009748       0.00131919       0.00257628       0.01011083
Br       3.70456181      -0.19674834      -1.46150288       0.00003732       0.03648826      -0.04086848      -0.00435244      -0.00658064       0.00126090
H        1.00162546      -0.63225250      -0.61377956       0.00546244      -0.00716181       0.01749178      -0.00115279       0.00158639      -0.00447399
H        0.83277184      -0.46792526       1.14927832       0.01169805      -0.02694204       0.01053218       0.00679496      -0.00205645      -0.00318847
C        0.56780771       2.22918748       1.15877099       0.00296747       0.01052250      -0.01131063      -0.00375596      -0.00069119      -0.00072968
N        0.19778052       2.92557283       2.03000751      -0.01546999      -0.00571515       0.00530779      -0.00732273      -0.00190540      -0.00119314
C        0.71684905       2.02865974      -1.30210612      -0.00611858      -0.00627448       0.00300744       0.00125869       0.00092174      -0.00049371
H        1.20448329       1.42773519      -2.07172552       0.00570161       0.00217618       0.01576787       0.00255540       0.00145151      -0.00005755
H       -0.35806506       2.08121248      -1.48110738      -0.00733255       0.02250089       0.00551280       0.00147529       0.00060681      -0.00188182
H        1.13304659       3.03696285      -1.35336425      -0.00338240      -0.01431078      -0.03641322       0.00079563       0.00118762       0.00055021
13
Properties=species:S:1:pos:R:3:mp2_forces:R:3:forces:R:3 R1=H R2=H R3=CN R4=CH3 lg=Br nu=Br rxn-id=103 mp2_energy=-145747.76360143823 energy=-145747.79223721856 free_energy=-145747.76360143823 pbc="F F F"
C        0.52825147      -0.04301251       0.20011818       0.00511184      -0.07371633       0.06408782       0.01044780      -0.00671754      -0.01005577
C        1.03409570       1.38662305       0.05705000       0.01401146       0.00206312       0.00999259      -0.00538938      -0.00211379      -0.00387285
H        2.12884606       1.27251408       0.09551353       0.02393548       0.00657592       0.00698952      -0.00630053       0.00281831       0.00387869
Br      -1.41643918      -0.22448183      -0.06698597      -0.03662213       0.05379369      -0.05009748       0.03255202       0.02555803       0.05990528
Br       3.75197561      -0.11490886      -1.48855877       0.00003732       0.03648826      -0.04086848      -0.01453112      -0.01408293       0.00978660
H        1.01189494      -0.65117455      -0.56238021       0.00546244      -0.00716181       0.01749178       0.00763466      -0.00132665      -0.01715135
H        0.75385719      -0.44610662       1.18722511       0.01169805      -0.02694204       0.01053218       0.00167178      -0.01310904      -0.01219443
C        0.60829947       2.23687037       1.16734747       0.00296747       0.01052250      -0.01131063      -0.01950421      -0.00770417      -0.00416124
N        0.27755332       2.94745353       2.04308746      -0.01546999      -0.00571515       0.00530779      -0.02456668      -0.00833053      -0.00556759
C        0.70552897       2.01580313      -1.29659788      -0.00611858      -0.00627448       0.00300744       0.00218139       0.00420252      -0.00504576
H        1.18566192       1.41115774      -2.06845416       0.00570161       0.00217618       0.01576787       0.00358746       0.00485235      -0.00440841
H       -0.37114710       2.06644559      -1.46528967      -0.00733255       0.02250089       0.00551280       0.00375878       0.01349840      -0.01285650
H        1.12198071       3.02315640      -1.35762634      -0.00338240      -0.01431078      -0.03641322       0.00845802       0.00245502       0.00174334
13
Properties=species:S:1:pos:R:3:mp2_forces:R:3:forces:R:3 R1=H R2=H R3=CN R4=CH3 lg=Br nu=Br rxn-id=103 mp2_energy=-145747.76360143823 energy=-145747.62671625701 free_energy=-145747.76360143823 pbc="F F F"
C        0.48144776      -0.01340697       0.24739399       0.00511184      -0.07371633       0.06408782      -0.13001847      -0.05128082      -0.11887210
C        1.06156413       1.39505820       0.08087566       0.01401146       0.00206312       0.00999259      -0.09155529      -0.02728919      -0.02497956
H        2.15878020       1.26001414       0.08658546       0.02393548       0.00657592       0.00698952      -0.08640460      -0.05509910       0.01320263
Br      -1.56286587      -0.30104761      -0.34293813      -0.03662213       0.05379369      -0.05009748       0.62243352       0.11143486       0.35871877
Br       3.81676537      -0.04136185      -1.55223843       0.00003732       0.03648826      -0.04086848      -0.02695829      -0.01055346       0.02152999
H        0.97392566      -0.64504986      -0.48669849       0.00546244      -0.00716181       0.01749178       0.02525358      -0.02982277      -0.05166748
H        0.74309932      -0.39683592       1.24166332       0.01169805      -0.02694204       0.01053218      -0.26049375      -0.05445022      -0.06402300
C        0.69644693       2.27332759       1.19104771       0.00296747       0.01052250      -0.01131063      -0.06371192      -0.02608850      -0.01231066
N        0.38816566       2.98980473       2.06992542      -0.01546999      -0.00571515       0.00530779      -0.00129147       0.00319821      -0.00772538
C        0.69645816       1.98823615      -1.27233595      -0.00611858      -0.00627448       0.00300744      -0.01121418       0.02864442      -0.02699718
H        1.19125250       1.38672254      -2.03992075       0.00570161       0.00217618       0.01576787       0.00220519       0.02554670      -0.01869111
H       -0.38646463       1.97348215      -1.41700502      -0.00733255       0.02250089       0.00551280      -0.00471045       0.06872648      -0.07186563
H        1.06178388       3.01139622      -1.36190605      -0.00338240      -0.01431078      -0.03641322       0.02646612       0.01703340       0.00368070
13
Properties=species:S:1:pos:R:3:mp2_forces:R:3:forces:R:3 R1=H R2=H R3=CN R4=CH3 lg=Br nu=Br rxn-id=103 mp2_energy=-145747.76360143823 energy=-145747.51865181976 free_energy=-145747.76360143823 pbc="F F F"
C        0.64526914       0.04171951       0.39805955       0.00511184      -0.07371633       0.06408782       0.02936649      -0.00937195       0.03317024
C        1.17249464       1.42602149       0.11495435       0.01401146       0.00206312       0.00999259      -0.01665619      -0.00800482       0.00831288
H        2.26149453       1.32293621       0.07341151       0.02393548       0.00657592       0.00698952       0.00464551      -0.00268090      -0.00498683
Br      -2.32399328      -0.39942401      -0.79876924      -0.03662213       0.05379369      -0.05009748       0.00019629       0.01815156      -0.06662792
Br       3.85280892      -0.02587434      -1.58317947       0.00003732       0.03648826      -0.04086848      -0.00334160       0.00613336       0.00211497
H        0.95382434      -0.61120269      -0.41772447       0.00546244      -0.00716181       0.01749178      -0.03647829       0.00395886       0.01391166
H        1.06608209      -0.33770055       1.32204111       0.01169805      -0.02694204       0.01053218       0.04358232       0.00276536      -0.00271097
C        0.77319708       2.30602499       1.20875769       0.00296747       0.01052250      -0.01131063      -0.00137127       0.00580258      -0.00255431
N        0.39637014       2.99002023       2.08562945      -0.01546999      -0.00571515       0.00530779       0.02782342       0.01445781       0.00052084
C        0.70516676       1.95287294      -1.23968912      -0.00611858      -0.00627448       0.00300744      -0.01232689      -0.00863190       0.00796605
H        1.19362709       1.35435033      -2.01086455       0.00570161       0.00217618       0.01576787      -0.01104659       0.00029112       0.01342434
H       -0.38741074       1.87141965      -1.33711907      -0.00733255       0.02250089       0.00551280      -0.01811383      -0.02252758      -0.00304203
H        1.01142837       2.98917575      -1.37105899      -0.00338240      -0.01431078      -0.03641322      -0.00627938      -0.00034350       0.00050109
13
Properties=species:S:1:pos:R:3:mp2_forces:R:3:forces:R:3 R1=H R2=H R3=CN R4=CH3 lg=Br nu=Br rxn-id=103 mp2_energy=-145747.76360143823 energy=-145747.62246162747 free_energy=-145747.76360143823 pbc="F F F"
C        0.69683150       0.11067166       0.67096840       0.00511184      -0.07371633       0.06408782      -0.00370646       0.00454352       0.00737854
C        1.20409688       1.45981902       0.19144462       0.01401146       0.00206312       0.00999259       0.00038301       0.00270941       0.00299555
H        2.27987222       1.33850191       0.01253478       0.02393548       0.00657592       0.00698952      -0.00030426       0.00005084      -0.00067608
Br      -2.06964087      -0.59330844      -1.70451019      -0.03662213       0.05379369      -0.05009748       0.02887068      -0.02004571      -0.02152357
Br       3.81015362      -0.01603893      -1.45409180       0.00003732       0.03648826      -0.04086848      -0.00389843      -0.00583388      -0.00145083
H        0.22450640      -0.42780956      -0.14605790       0.00546244      -0.00716181       0.01749178      -0.02725907       0.01261106       0.00500816
H        1.53001978      -0.46019489       1.07308581       0.01169805      -0.02694204       0.01053218       0.00576729      -0.01303157      -0.01245307
C        0.99240662       2.44975080       1.24363941       0.00296747       0.01052250      -0.01131063       0.00713149       0.00646056       0.00155265
N        0.77447609       3.22417827       2.09961901      -0.01546999      -0.00571515       0.00530779       0.01355776       0.01012271       0.00002848
C        0.57282374       1.88194444      -1.13722093      -0.00611858      -0.00627448       0.00300744      -0.00432884       0.00089827       0.00441066
H        0.97468639       1.22628372      -1.91211447       0.00570161       0.00217618       0.01576787      -0.00969125      -0.00232951       0.00384944
H       -0.51878364       1.77677105      -1.12243215      -0.00733255       0.02250089       0.00551280      -0.00453915       0.00398845       0.00918474
H        0.84891035       2.90977046      -1.37041584      -0.00338240      -0.01431078      -0.03641322      -0.00198278      -0.00014416       0.00169533
13
Properties=species:S:1:pos:R:3:mp2_forces:R:3:forces:R:3 R1=H R2=H R3=CN R4=CH3 lg=Br nu=Br rxn-id=103 mp2_energy=-145747.76360143823 energy=-145747.66978989894 free_energy=-145747.76360143823 pbc="F F F"
C        0.80559507       0.04219410       0.59051324       0.00511184      -0.07371633       0.06408782       0.02915828      -0.00511384      -0.00042597
C        1.24138415       1.45123530       0.18885375       0.01401146       0.00206312       0.00999259       0.00548915       0.00847618       0.01449926
H        2.33851963       1.43046571       0.13578337       0.02393548       0.00657592       0.00698952       0.00660096       0.02372308       0.02453583
Br      -2.56565944      -0.57085054      -1.11254633      -0.03662213       0.05379369      -0.05009748      -0.05846785      -0.02847702      -0.01240279
Br       4.11669095       0.17935419      -1.18921996       0.00003732       0.03648826      -0.04086848      -0.02468404      -0.02535901      -0.01046263
H       -0.14561930      -0.21688582       0.11684860       0.00546244      -0.00716181       0.01749178      -0.00195067       0.01382657       0.03945377
H        1.58665088      -0.64227577       0.27264935       0.01169805      -0.02694204       0.01053218       0.02070585       0.00430271      -0.08302022
C        0.83582465       2.40498952       1.21764749       0.00296747       0.01052250      -0.01131063      -0.01707572       0.00789129       0.00588105
N        0.51631052       3.14726213       2.06986301      -0.01546999      -0.00571515       0.00530779      -0.02336431       0.01918256      -0.00407741
C        0.73250133       1.84814046      -1.20768715      -0.00611858      -0.00627448       0.00300744       0.01547592      -0.00250008       0.00765483
H        1.27336066       1.24704660      -1.93794078       0.00570161       0.00217618       0.01576787       0.02049163      -0.00815685       0.01608722
H       -0.34991523       1.66008322      -1.30457503      -0.00733255       0.02250089       0.00551280       0.01437520      -0.00325601       0.00246670
H        0.93471521       2.89958043      -1.39574082      -0.00338240      -0.01431078      -0.03641322       0.01324560      -0.00453958      -0.00018964
13
Properties=species:S:1:pos:R:3:mp2_forces:R:3:forces:R:3 R1=H R2=H R3=CN R4=CH3 lg=Br nu=Br rxn-id=103 mp2_energy=-145747.76360143823 energy=-145747.62706950147 free_energy=-145747.76360143823 pbc="F F F"
C        0.71004904       0.05497134       0.60192845       0.00511184      -0.07371633       0.06408782       0.02474434      -0.01147491       0.00899818
C        1.22564834       1.42029808       0.15316055       0.01401146       0.00206312       0.00999259      -0.00427863       0.01059893       0.02457780
H        2.31948795       1.34915008       0.07298584       0.02393548       0.00657592       0.00698952      -0.00294551       0.02046686       0.02802528
Br      -2.41993931      -0.48244347      -1.08869682      -0.03662213       0.05379369      -0.05009748       0.00389094      -0.01043188      -0.02833078
Br       4.19093417       0.31255972      -1.19246931       0.00003732       0.03648826      -0.04086848      -0.06207471      -0.02206723       0.00495076
H       -0.15002352      -0.25516467       0.00427811       0.00546244      -0.00716181       0.01749178      -0.00799726       0.01861272       0.02773457
H        1.51547064      -0.66542537       0.53224461       0.01169805      -0.02694204       0.01053218       0.04291924      -0.01984166      -0.11899226
C        0.88893609       2.38147133       1.19961840       0.00296747       0.01052250      -0.01131063      -0.01419782       0.02150956       0.00897122
N        0.58988352       3.10008423       2.07914369      -0.01546999      -0.00571515       0.00530779      -0.00315703       0.04734923      -0.00424455
C        0.69681116       1.84526773      -1.22832002      -0.00611858      -0.00627448       0.00300744       0.00388254      -0.01002749       0.01364239
H        1.22425873       1.25452869      -1.97715122       0.00570161       0.00217618       0.01576787       0.00549795      -0.02568766       0.02742463
H       -0.38341242       1.66512845      -1.31446424      -0.00733255       0.02250089       0.00551280       0.00288862      -0.00516312       0.01006483
H        0.91225470       2.89991338      -1.39780928      -0.00338240      -0.01431078      -0.03641322       0.01082733      -0.01384337      -0.00282207
13
Properties=species:S:1:pos:R:3:mp2_forces:R:3:forces:R:3 R1=H R2=H R3=CN R4=CH3 lg=Br nu=Br rxn-id=103 mp2_energy=-145747.76360143823 energy=-145747.5219910001 free_energy=-145747.76360143823 pbc="F F F"
C        0.63180978       0.08923475       0.58756216       0.00511184      -0.07371633       0.06408782      -0.10175846       0.07384081       0.13926787
C        1.24046708       1.38739963       0.09339497       0.01401146       0.00206312       0.00999259      -0.01673890       0.01336020       0.03056328
H        2.33020275       1.28601318       0.00660587       0.02393548       0.00657592       0.00698952      -0.02213297      -0.04286328       0.02312878
Br      -2.42967693      -0.44311160      -1.03015812      -0.03662213       0.05379369      -0.05009748       0.01032213      -0.01571835      -0.04810066
Br       4.35320892       0.40512556      -1.26529315       0.00003732       0.03648826      -0.04086848      -0.07210203       0.01109317       0.02286902
H       -0.13083062      -0.30662124      -0.06956733       0.00546244      -0.00716181       0.01749178       0.03904466      -0.03868426      -0.07014070
H        1.38087670      -0.61265610       0.89416913       0.01169805      -0.02694204       0.01053218       0.10923425      -0.08765226      -0.15502079
C        0.92747182       2.32017659       1.17441787       0.00296747       0.01052250      -0.01131063       0.03300549       0.08004883       0.00051191
N        0.58674553       2.97419372       2.08829539      -0.01546999      -0.00571515       0.00530779       0.03234287       0.07162446       0.00477172
C        0.69564430       1.86488045      -1.26161298      -0.00611858      -0.00627448       0.00300744      -0.00438836      -0.01329117       0.01378302
H        1.22102279       1.31442240      -2.04450528       0.00570161       0.00217618       0.01576787      -0.00417197      -0.03181309       0.03127118
H       -0.38154569       1.67225472      -1.34013107      -0.00733255       0.02250089       0.00551280      -0.00872379      -0.00365166       0.00864685
H        0.89496265       2.92902744      -1.38872869      -0.00338240      -0.01431078      -0.03641322       0.00606707      -0.01629340      -0.00155148
13
Properties=species:S:1:pos:R:3:mp2_forces:R:3:forces:R:3 R1=H R2=H R3=CN R4=CH3 lg=Br nu=Br rxn-id=103 mp2_energy=-145747.76360143823 energy=-145747.45115490304 free_energy=-145747.76360143823 pbc="F F F"
C        0.84909472      -0.06840373       0.28859393       0.00511184      -0.07371633       0.06408782      -0.01910199      -0.00217891       0.00610303
C        1.27845213       1.35722484       0.03140237       0.01401146       0.00206312       0.00999259      -0.00262876      -0.00802190      -0.00306479
H        2.37929463       1.37607335      -0.03827176       0.02393548       0.00657592       0.00698952      -0.00143848      -0.01782983      -0.00863435
Br      -2.44389985      -0.41170621      -0.95508946      -0.03662213       0.05379369      -0.05009748      -0.01164957       0.00415125       0.00182189
Br       4.49857390       0.38452518      -1.37030244       0.00003732       0.03648826      -0.04086848       0.08220788       0.02858757      -0.00687819
H       -0.20800662      -0.22771489       0.08416971       0.00546244      -0.00716181       0.01749178      -0.02074217       0.00635477       0.00618368
H        1.12387996      -0.40551224       1.28143630       0.01169805      -0.02694204       0.01053218      -0.02290622       0.00188269       0.00889622
C        0.85518117       2.14508054       1.17918558       0.00296747       0.01052250      -0.01131063       0.00915769      -0.00278401      -0.00189726
N        0.51047604       2.81466598       2.08007674      -0.01546999      -0.00571515       0.00530779       0.01473391      -0.00068117      -0.00154670
C        0.71002911       1.89241508      -1.28821920      -0.00611858      -0.00627448       0.00300744      -0.00675346      -0.00303923      -0.00035327
H        1.23651271       1.38164442      -2.10799265       0.00570161       0.00217618       0.01576787      -0.00951121      -0.00159199      -0.00411769
H       -0.35767709       1.67953981      -1.35816075      -0.00733255       0.02250089       0.00551280      -0.00630543      -0.00178514       0.00143357
H        0.88844826       2.96250739      -1.38237963      -0.00338240      -0.01431078      -0.03641322      -0.00506218      -0.00306409       0.00205387
13
Properties=species:S:1:pos:R:3:mp2_forces:R:3:forces:R:3 R1=H R2=H R3=CN R4=CH3 lg=Br nu=Br rxn-id=103 mp2_energy=-145747.76360143823 energy=-145747.46074494315 free_energy=-145747.76360143823 pbc="F F F"
C        0.97560665      -0.04583572       0.27878213       0.00511184      -0.07371633       0.06408782      -0.02479341      -0.00261162       0.00926912
C        1.29409083       1.41812607       0.06893988       0.01401146       0.00206312       0.00999259      -0.00408276      -0.00625275       0.00082844
H        2.38748865       1.50450059       0.03352605       0.02393548       0.00657592       0.00698952      -0.00063677      -0.02151344      -0.00042823
Br      -2.34928599      -0.46154514      -1.05384696      -0.03662213       0.05379369      -0.05009748      -0.00420871      -0.00053993       0.00531721
Br       3.98671375       0.15506045      -1.42826571       0.00003732       0.03648826      -0.04086848       0.05841705       0.02848102      -0.03776332
H       -0.06139008      -0.27498070       0.03929333       0.00546244      -0.00716181       0.01749178      -0.03503934       0.00914195       0.02585346
H        1.24517483      -0.38677409       1.26995495       0.01169805      -0.02694204       0.01053218      -0.00968781       0.00173987       0.00774701
C        0.79426942       2.17739806       1.20658970       0.00296747       0.01052250      -0.01131063       0.00026904      -0.00147103      -0.00142622
N        0.41190723       2.83216063       2.10347768      -0.01546999      -0.00571515       0.00530779      -0.00256463      -0.00097124      -0.00215176
C        0.74815855       1.91092375      -1.27085045      -0.00611858      -0.00627448       0.00300744       0.00363938      -0.00229817      -0.00145515
H        1.29334343       1.38404850      -2.06332947       0.00570161       0.00217618       0.01576787       0.01155229       0.00097768       0.00000388
H       -0.32072664       1.68698422      -1.35152102      -0.00733255       0.02250089       0.00551280       0.00337449      -0.00309965      -0.00897274
H        0.91500847       2.98027290      -1.38830135      -0.00338240      -0.01431078      -0.03641322       0.00376119      -0.00158268       0.00317831
13
Properties=species:S:1:pos:R:3:mp2_forces:R:3:forces:R:3 R1=H R2=H R3=CN R4=CH3 lg=Br nu=Br rxn-id=103 mp2_energy=-145747.76360143823 energy=-145747.40984442367 free_energy=-145747.76360143823 pbc="F F F"
C        1.37914087       0.00895389       0.15551682       0.00511184      -0.07371633       0.06408782       0.10926657       0.02146669      -0.02822421
C        1.35590449       1.53849119       0.05730993       0.01401146       0.00206312       0.00999259       0.02428234       0.03697559      -0.01173434
H        2.39775336       1.86348958       0.00248542       0.02393548       0.00657592       0.00698952       0.00825078       0.10821856       0.00588922
Br      -2.26316415      -0.47427817      -1.32987912      -0.03662213       0.05379369      -0.05009748       0.08053123       0.00720638       0.00886777