15
Properties=species:S:1:pos:R:3:mp2_forces:R:3:forces:R:3 R1=H R2=NO2 R3=CH3 R4=CN lg=Cl nu=Cl rxn-id=281 mp2_energy=-36296.80498967612 energy=-36296.80498967612 free_energy=-36296.80498967612 pbc="F F F"
C        0.63542030      -0.04816304       0.08724900       0.01921142      -0.05705814      -0.00631319       0.01921142      -0.05705814      -0.00631319
C        0.96006516       1.43519030       0.01815145       0.00527685       0.00795507       0.00364728       0.00527685       0.00795507       0.00364728
H        2.05248842       1.47476344       0.05713786       0.03071412       0.02323832      -0.00237805       0.03071412       0.02323832      -0.00237805
Cl      -1.11489227      -0.33396169       0.27708122      -0.05799353      -0.05434705      -0.03184144      -0.05799353      -0.05434705      -0.03184144
Cl       3.49390927      -0.15063302      -1.17831695       0.00981109      -0.00719340      -0.01203738       0.00981109      -0.00719340      -0.01203738
H        0.99084666      -0.57405839      -0.79319097      -0.00323474       0.01183285      -0.06040203      -0.00323474       0.01183285      -0.06040203
N        1.32294411      -0.74017743       1.23884967      -0.00705346      -0.02547229      -0.00230165      -0.00705346      -0.02547229      -0.00230165
O        1.82457381      -0.05139219       2.12130813       0.01862522      -0.02812955       0.02592982       0.01862522      -0.02812955       0.02592982
O        1.30166853      -1.96307858       1.20220292       0.00252273       0.02653241       0.06732714       0.00252273       0.02653241       0.06732714
C        0.29909137       2.30883276       1.08616899      -0.00187158       0.04167806      -0.00755434      -0.00187158       0.04167806      -0.00755434
H       -0.77154721       2.39537857       0.89997898      -0.01735517       0.01762463       0.06771938      -0.01735517       0.01762463       0.06771938
H        0.46726415       1.89928192       2.08046745       0.01233924      -0.00199366      -0.03600699       0.01233924      -0.00199366      -0.03600699
H        0.73734556       3.30691446       1.04066681      -0.00512775       0.04779861       0.01297628      -0.00512775       0.04779861       0.01297628
C        0.55027305       1.91536975      -1.30330072      -0.04946864      -0.02302940      -0.04140251      -0.04946864      -0.02302940      -0.04140251
N        0.12953678       2.34152455      -2.31361677       0.04360419       0.02056355       0.02263769       0.04360419       0.02056355       0.02263769
15
Properties=species:S:1:pos:R:3:mp2_forces:R:3:forces:R:3 R1=H R2=NO2 R3=CH3 R4=CN lg=Cl nu=Cl rxn-id=281 mp2_energy=-36296.80498967612 energy=-36296.804551205765 free_energy=-36296.80498967612 pbc="F F F"
C        0.65328836      -0.05446953       0.08654730       0.01921142      -0.05705814      -0.00631319       0.00355838      -0.00044663      -0.00280987
C        0.95943810       1.43690654       0.02684150       0.00527685       0.00795507       0.00364728       0.00106512      -0.00013664      -0.00178436
H        2.05068052       1.50108371       0.09236400       0.03071412       0.02323832      -0.00237805       0.00142151       0.00127288      -0.00853177
Cl      -1.09696248      -0.37680834       0.20384286      -0.05799353      -0.05434705      -0.03184144       0.00236712      -0.00182316      -0.02619603
Cl       3.41531184      -0.22399079      -1.34040852       0.00981109      -0.00719340      -0.01203738       0.00930998       0.00676194       0.00045358
H        1.05396189      -0.57169235      -0.78319834      -0.00323474       0.01183285      -0.06040203       0.01664408       0.00049487       0.00188489
N        1.31514540      -0.71944741       1.27431543      -0.00705346      -0.02547229      -0.00230165      -0.00877817       0.00143705       0.00530789
O        1.88638099      -0.01397660       2.10260685       0.01862522      -0.02812955       0.02592982      -0.00154465       0.00130066       0.00073027
O        1.22800040      -1.93835836       1.31481733       0.00252273       0.02653241       0.06732714      -0.02142277       0.00226770       0.01426698
C        0.27524275       2.29490061       1.09311616      -0.00187158       0.04167806      -0.00755434       0.00591093      -0.00150602       0.00247808
H       -0.80204469       2.33603955       0.93415905      -0.01735517       0.01762463       0.06771938       0.00504923      -0.00298336       0.00823397
H        0.47613238       1.89759662       2.08463947       0.01233924      -0.00199366      -0.03600699       0.01195232      -0.00087914       0.00146175
H        0.67069917       3.31270832       1.03564013      -0.00512775       0.04779861       0.01297628       0.00462071      -0.00102968       0.00020538
C        0.57900561       1.93106725      -1.29682562      -0.04946864      -0.02302940      -0.04140251      -0.00988438      -0.00114358       0.00100375
N        0.21470746       2.40423220      -2.30762052       0.04360419       0.02056355       0.02263769      -0.02026941      -0.00358689       0.00329550
15
Properties=species:S:1:pos:R:3:mp2_forces:R:3:forces:R:3 R1=H R2=NO2 R3=CH3 R4=CN lg=Cl nu=Cl rxn-id=281 mp2_energy=-36296.80498967612 energy=-36296.79712199842 free_energy=-36296.80498967612 pbc="F F F"
C        0.64315483      -0.05323291       0.09149541       0.01921142      -0.05705814      -0.00631319       0.00495894      -0.00081565      -0.00344116
C        0.95659239       1.43699254       0.02859561       0.00527685       0.00795507       0.00364728       0.00152012      -0.00049483      -0.00196015
H        2.04728099       1.49662729       0.10584292       0.03071412       0.02323832      -0.00237805       0.00220661       0.00088601      -0.01165391
Cl      -1.10488390      -0.36929302       0.26792283      -0.05799353      -0.05434705      -0.03184144       0.00219691      -0.00169569      -0.03607370
Cl       3.40188168      -0.23034643      -1.31399898       0.00981109      -0.00719340      -0.01203738       0.01322200       0.00855826      -0.00352854
H        1.00910383      -0.57343599      -0.79041504      -0.00323474       0.01183285      -0.06040203       0.02334281       0.00030559       0.00259905
N        1.33578310      -0.72449350       1.25795822      -0.00705346      -0.02547229      -0.00230165      -0.01178597       0.00170215       0.00811347
O        1.88580380      -0.02002105       2.10085641       0.01862522      -0.02812955       0.02592982      -0.00727633       0.00252183       0.00484948
O        1.28250495      -1.94582507       1.27224627       0.00252273       0.02653241       0.06732714      -0.02374449       0.00201441       0.01776336
C        0.26577507       2.29941850       1.08653480      -0.00187158       0.04167806      -0.00755434       0.00817136      -0.00150794       0.00351338
H       -0.80932698       2.34862620       0.91470569      -0.01735517       0.01762463       0.06771938       0.00731363      -0.00106403       0.00957276
H        0.45153815       1.89786648       2.07950396       0.01233924      -0.00199366      -0.03600699       0.01371493      -0.00123814       0.00243483
H        0.66881418       3.31451685       1.03593119      -0.00512775       0.04779861       0.01297628       0.00870374      -0.00167926       0.00133699
C        0.59596082       1.93146879      -1.30027159      -0.04946864      -0.02302940      -0.04140251      -0.01388674      -0.00208653       0.00179287
N        0.24900477       2.40692276      -2.31607061       0.04360419       0.02056355       0.02263769      -0.02865750      -0.00540617       0.00468126
15
Properties=species:S:1:pos:R:3:mp2_forces:R:3:forces:R:3 R1=H R2=NO2 R3=CH3 R4=CN lg=Cl nu=Cl rxn-id=281 mp2_energy=-36296.80498967612 energy=-36296.78872799299 free_energy=-36296.80498967612 pbc="F F F"
C        0.63510505      -0.05156026       0.09585105       0.01921142      -0.05705814      -0.00631319       0.00552635      -0.00179667      -0.00397113
C        0.95511209       1.43775174       0.02970730       0.00527685       0.00795507       0.00364728       0.00042046      -0.00135940      -0.00135503
H        2.04503477       1.49446991       0.11866325       0.03071412       0.02323832      -0.00237805       0.00154038      -0.00102738      -0.01416937
Cl      -1.10927097      -0.36309380       0.32449430      -0.05799353      -0.05434705      -0.03184144       0.00105696      -0.00325599      -0.04596080
Cl       3.38678602      -0.23937093      -1.29123639       0.00981109      -0.00719340      -0.01203738       0.01991371       0.01021197      -0.00993268
H        0.97034308      -0.57450736      -0.79560214      -0.00323474       0.01183285      -0.06040203       0.03011366       0.00035434       0.00289079
N        1.35371296      -0.72804199       1.24353018      -0.00705346      -0.02547229      -0.00230165      -0.01470663       0.00165036       0.01076718
O        1.89035174      -0.02613835       2.09662890       0.01862522      -0.02812955       0.02592982      -0.01247813       0.00400606       0.00789198
O        1.32418075      -1.95009736       1.23739501       0.00252273       0.02653241       0.06732714      -0.02510182       0.00152994       0.02150210
C        0.25665028       2.30229659       1.08021840      -0.00187158       0.04167806      -0.00755434       0.00976517      -0.00080293       0.00524117
H       -0.81686886       2.35314319       0.89843884      -0.01735517       0.01762463       0.06771938       0.00887527       0.00345255       0.01213878
H        0.43252996       1.89824602       2.07418441       0.01233924      -0.00199366      -0.03600699       0.01444354       0.00007189       0.00453819
H        0.66121132       3.31687159       1.03466410      -0.00512775       0.04779861       0.01297628       0.01378344      -0.00227134       0.00191804
C        0.61288711       1.93334841      -1.30345601      -0.04946864      -0.02302940      -0.04140251      -0.01831939      -0.00332871       0.00312775
N        0.28122238       2.41247401      -2.32264412       0.04360419       0.02056355       0.02263769      -0.03483297      -0.00743469       0.00537304
15
Properties=species:S:1:pos:R:3:mp2_forces:R:3:forces:R:3 R1=H R2=NO2 R3=CH3 R4=CN lg=Cl nu=Cl rxn-id=281 mp2_energy=-36296.80498967612 energy=-36296.778766671676 free_energy=-36296.80498967612 pbc="F F F"
C        0.62906946      -0.04958582       0.10111893       0.01921142      -0.05705814      -0.00631319       0.00492937      -0.00320726      -0.00418664
C        0.95557458       1.43896680       0.03143198       0.00527685       0.00795507       0.00364728      -0.00237940      -0.00286261      -0.00007014
H        2.04429365       1.49483353       0.13422816       0.03071412       0.02323832      -0.00237805      -0.00061529      -0.00628755      -0.01620578
Cl      -1.11054875      -0.35706585       0.37889059      -0.05799353      -0.05434705      -0.03184144      -0.00200077      -0.00723632      -0.05750177
Cl       3.36548897      -0.24635193      -1.28363361       0.00981109      -0.00719340      -0.01203738       0.02790909       0.01088645      -0.01618479
H        0.93553917      -0.57541083      -0.79815055      -0.00323474       0.01183285      -0.06040203       0.03795372       0.00068210       0.00301209
N        1.37006115      -0.73055024       1.23186967      -0.00705346      -0.02547229      -0.00230165      -0.01735485       0.00162755       0.01376290
O        1.89897461      -0.03151892       2.09164389       0.01862522      -0.02812955       0.02592982      -0.01597347       0.00555869       0.01040781
O        1.35608140      -1.95255507       1.21062293       0.00252273       0.02653241       0.06732714      -0.02430504       0.00110229       0.02414052
C        0.24629796       2.30361560       1.07391466      -0.00187158       0.04167806      -0.00755434       0.01105472       0.00096734       0.00722509
H       -0.82544538       2.35286487       0.88092100      -0.01735517       0.01762463       0.06771938       0.01002831       0.01056924       0.01529787
H        0.41224707       1.89665199       2.06872473       0.01233924      -0.00199366      -0.03600699       0.01489712       0.00351670       0.00719884
H        0.64943077       3.31873284       1.03485844      -0.00512775       0.04779861       0.01297628       0.01983167      -0.00208177       0.00145257
C        0.63379554       1.93530731      -1.30647214      -0.04946864      -0.02302940      -0.04140251      -0.02360812      -0.00473887       0.00525473
N        0.31812749       2.41785713      -2.32913161       0.04360419       0.02056355       0.02263769      -0.04036706      -0.00849597       0.00639668
15
Properties=species:S:1:pos:R:3:mp2_forces:R:3:forces:R:3 R1=H R2=NO2 R3=CH3 R4=CN lg=Cl nu=Cl rxn-id=281 mp2_energy=-36296.80498967612 energy=-36296.75580711507 free_energy=-36296.80498967612 pbc="F F F"
C        0.61969686      -0.04523509       0.10810477       0.01921142      -0.05705814      -0.00631319      -0.00118993      -0.00549324      -0.00131896
C        0.95823122       1.44272305       0.03131439       0.00527685       0.00795507       0.00364728      -0.01325727      -0.00771177       0.00436056
H        2.04417847       1.50341418       0.15824167       0.03071412       0.02323832      -0.00237805      -0.00933297      -0.03411954      -0.01924277
Cl      -1.10818653      -0.34552387       0.47530491      -0.05799353      -0.05434705      -0.03184144      -0.01121331      -0.01589371      -0.07715414
Cl       3.32598077      -0.25499761      -1.25235948       0.00981109      -0.00719340      -0.01203738       0.05810541       0.00903046      -0.03940324
H        0.87077099      -0.57719471      -0.80356479      -0.00323474       0.01183285      -0.06040203       0.05868047       0.00517407       0.00670864
N        1.39757567      -0.73486215       1.20846037      -0.00705346      -0.02547229      -0.00230165      -0.02408137       0.00259735       0.02051248
O        1.91656261      -0.04216284       2.07825685       0.01862522      -0.02812955       0.02592982      -0.01765098       0.00774042       0.01367170
O        1.40208068      -1.95604284       1.16536196       0.00252273       0.02653241       0.06732714      -0.02068081       0.00213607       0.02455751
C        0.23039009       2.30354037       1.06220175      -0.00187158       0.04167806      -0.00755434       0.01099935       0.00784387       0.01152635
H       -0.83893250       2.34428584       0.85414612      -0.01735517       0.01762463       0.06771938       0.00914735       0.02971643       0.02203224
H        0.38571741       1.89052725       2.05708960       0.01233924      -0.00199366      -0.03600699       0.01286510       0.01517440       0.01312846
H        0.62641137       3.32096447       1.03414955      -0.00512775       0.04779861       0.01297628       0.02899406       0.00237587       0.00002101
C        0.66958890       1.93960019      -1.31396112      -0.04946864      -0.02302940      -0.04140251      -0.03436953      -0.00909990       0.01163919
N        0.37892170       2.42675516      -2.34190948       0.04360419       0.02056355       0.02263769      -0.04701556      -0.00947078       0.00896097
15
Properties=species:S:1:pos:R:3:mp2_forces:R:3:forces:R:3 R1=H R2=NO2 R3=CH3 R4=CN lg=Cl nu=Cl rxn-id=281 mp2_energy=-36296.80498967612 energy=-36296.71109324894 free_energy=-36296.80498967612 pbc="F F F"
C        0.62145511      -0.03926527       0.11068584       0.01921142      -0.05705814      -0.00631319      -0.06371109      -0.00371152       0.02638229
C        0.97419211       1.45179161       0.02679759       0.00527685       0.00795507       0.00364728      -0.05512079      -0.02342443       0.01719593
H        2.05498186       1.54576794       0.18453199       0.03071412       0.02323832      -0.00237805      -0.03950671      -0.13716011      -0.02259492
Cl      -1.09349416      -0.32959732       0.57030062      -0.05799353      -0.05434705      -0.03184144      -0.01428080      -0.02178076      -0.09050491
Cl       3.24916411      -0.26435936      -1.21019058       0.00981109      -0.00719340      -0.01203738       0.16311326      -0.00436983      -0.10358943
H        0.79967014      -0.58384025      -0.81113523      -0.00323474       0.01183285      -0.06040203       0.11699950       0.03443585       0.02611699
N        1.42763189      -0.73889925       1.18437891      -0.00705346      -0.02547229      -0.00230165      -0.04903438       0.00953183       0.03061409
O        1.93587879      -0.05271136       2.06451848       0.01862522      -0.02812955       0.02592982      -0.00427127       0.01275718       0.00271312
O        1.43080927      -1.95945974       1.13420400       0.00252273       0.02653241       0.06732714      -0.00595482       0.01005234       0.00697282
C        0.21651107       2.29502727       1.04742707      -0.00187158       0.04167806      -0.00755434       0.00339977       0.02892641       0.01798918
H       -0.84995340       2.31145363       0.82381970      -0.01735517       0.01762463       0.06771938      -0.00118342       0.07095155       0.03420389
H        0.36695554       1.87348974       2.04099066       0.01233924      -0.00199366      -0.03600699       0.00849474       0.03753462       0.01973802
H        0.59341711       3.31821191       1.03372877      -0.00512775       0.04779861       0.01297628       0.03335520       0.01959991       0.00074363
C        0.71381015       1.94830750      -1.32433923      -0.04946864      -0.02302940      -0.04140251      -0.05152153      -0.01817367       0.00878005
N        0.43795808       2.43987434      -2.35488152       0.04360419       0.02056355       0.02263769      -0.04077767      -0.01516936       0.02523924
15
Properties=species:S:1:pos:R:3:mp2_forces:R:3:forces:R:3 R1=H R2=NO2 R3=CH3 R4=CN lg=Cl nu=Cl rxn-id=281 mp2_energy=-36296.80498967612 energy=-36296.54562730051 free_energy=-36296.80498967612 pbc="F F F"
C        0.67130350      -0.03622951       0.09078632       0.01921142      -0.05705814      -0.00631319      -0.85807921      -0.02603048       0.31232251
C        1.01770340       1.47005090       0.01406339       0.00527685       0.00795507       0.00364728      -0.17404080      -0.07100620       0.03619868
H        2.08652356       1.65383977       0.20203624       0.03071412       0.02323832      -0.00237805      -0.07768427      -0.31971023      -0.02081880
Cl      -1.08212515      -0.31287271       0.64420707      -0.05799353      -0.05434705      -0.03184144       0.34910906       0.06020593      -0.16499236
Cl       3.12173642      -0.25841922      -1.12761865       0.00981109      -0.00719340      -0.01203738       0.47810600      -0.05254635      -0.27438797
H        0.70826016      -0.60992186      -0.83127360      -0.00323474       0.01183285      -0.06040203       0.34953741       0.12434596       0.05183264
N        1.46620771      -0.74753983       1.16025218      -0.00705346      -0.02547229      -0.00230165      -0.10710019       0.03159669       0.02783719
O        1.93715727      -0.06535265       2.06459842       0.01862522      -0.02812955       0.02592982       0.03974001       0.01531344      -0.05298244
O        1.43732038      -1.96838582       1.12522006       0.00252273       0.02653241       0.06732714       0.03868199       0.02922941      -0.04043885
C        0.21430589       2.27343024       1.03279086      -0.00187158       0.04167806      -0.00755434      -0.00013964       0.06978462       0.00918734
H       -0.84787265       2.25939215       0.79363248      -0.01735517       0.01762463       0.06771938      -0.01404102       0.11552220       0.03161392
H        0.35768982       1.84349690       2.02465897       0.01233924      -0.00199366      -0.03600699       0.02234943       0.05278145       0.01257285
H        0.57015650       3.30314017       1.03476186      -0.00512775       0.04779861       0.01297628       0.01600943       0.04419134       0.01207131
C        0.75191590       1.96421390      -1.33742363      -0.04946864      -0.02302940      -0.04140251      -0.03065595      -0.07227021       0.03844245
N        0.46870498       2.44694898      -2.36985490       0.04360419       0.02056355       0.02263769      -0.03179227      -0.00140756       0.02154152
15
Properties=species:S:1:pos:R:3:mp2_forces:R:3:forces:R:3 R1=H R2=NO2 R3=CH3 R4=CN lg=Cl nu=Cl rxn-id=281 mp2_energy=-36296.80498967612 energy=-36296.128257425815 free_energy=-36296.80498967612 pbc="F F F"
C        0.80627866      -0.03198720       0.04195382       0.01921142      -0.05705814      -0.00631319      -1.91436776      -0.03958738       0.72655185
C        1.04507634       1.48143240       0.00812375       0.00527685       0.00795507       0.00364728      -0.09692908      -0.06280043       0.00900031
H        2.09871093       1.70408682       0.20537561       0.03071412       0.02323832      -0.00237805      -0.00533974      -0.21320496      -0.01592918
Cl      -1.13704938      -0.32287481       0.67091688      -0.05799353      -0.05434705      -0.03184144       0.79884993       0.13121013      -0.25866650
Cl       3.04661232      -0.24999932      -1.08473279       0.00981109      -0.00719340      -0.01203738       0.49597816      -0.06397829      -0.26711194
H        0.65286780      -0.62923621      -0.83921316      -0.00323474       0.01183285      -0.06040203       0.53222080       0.07354539      -0.11149474
N        1.48330889      -0.75260276       1.15579036      -0.00705346      -0.02547229      -0.00230165       0.03770257       0.02118067      -0.03002700
O        1.93068040      -0.06813551       2.07333595       0.01862522      -0.02812955       0.02592982       0.05321668      -0.00146707      -0.05009880
O        1.43168123      -1.97307727       1.13089180       0.00252273       0.02653241       0.06732714       0.05373244       0.01685475      -0.03762412
C        0.21429750       2.26265767       1.03113958      -0.00187158       0.04167806      -0.00755434       0.02519421       0.04617342      -0.01669675
H       -0.84562019       2.24194382       0.78798393      -0.01735517       0.01762463       0.06771938       0.00091430       0.08096942       0.00645103
H        0.35343010       1.83510420       2.02247272       0.01233924      -0.00199366      -0.03600699       0.02285531       0.03726853       0.00214214
H        0.56804126       3.29629172       1.03314108      -0.00512775       0.04779861       0.01297628       0.00273347       0.02816928       0.01224000
C        0.75771411       1.97397078      -1.34016807      -0.04946864      -0.02302940      -0.04140251       0.01457767      -0.05713215       0.01073099
N        0.47295772       2.44821708      -2.37617437       0.04360419       0.02056355       0.02263769      -0.02133896       0.00279869       0.02053271
15
Properties=species:S:1:pos:R:3:mp2_forces:R:3:forces:R:3 R1=H R2=NO2 R3=CH3 R4=CN lg=Cl nu=Cl rxn-id=281 mp2_energy=-36296.80498967612 energy=-36295.890187725425 free_energy=-36296.80498967612 pbc="F F F"
C        0.91573159      -0.02966670       0.00052223       0.01921142      -0.05705814      -0.00631319      -0.83039271       0.02308035       0.35291969
C        1.05063947       1.48508118       0.00758791       0.00527685       0.00795507       0.00364728      -0.01498217      -0.00508132       0.00028484
H        2.09904742       1.71632391       0.20630873       0.03071412       0.02323832      -0.00237805       0.00965084      -0.07795985      -0.00929853
Cl      -1.18286452      -0.33064197       0.68599403      -0.05799353      -0.05434705      -0.03184144       0.24584031       0.03365684      -0.07473642
Cl       3.01830534      -0.24628593      -1.06960657       0.00981109      -0.00719340      -0.01203738       0.20603312      -0.02626232      -0.10856142
H        0.62234879      -0.63332342      -0.83274141      -0.00323474       0.01183285      -0.06040203       0.24992616       0.00154247      -0.10252212
N        1.48117853      -0.75384218       1.15749562      -0.00705346      -0.02547229      -0.00230165       0.04683850       0.00048354      -0.01956488
O        1.92756336      -0.06821125       2.07634796       0.01862522      -0.02812955       0.02592982       0.02778805      -0.00429369      -0.01530922
O        1.42879267      -1.97407707       1.13279781       0.00252273       0.02653241       0.06732714       0.02892900       0.00055204      -0.01697712
C        0.21286234       2.26010229       1.03203105      -0.00187158       0.04167806      -0.00755434       0.01448599       0.01509241      -0.01172929
H       -0.84562230       2.23756903       0.78733581      -0.01735517       0.01762463       0.06771938       0.00276591       0.03315315      -0.00292539
H        0.35184588       1.83294460       2.02228066       0.01233924      -0.00199366      -0.03600699       0.00622405       0.01374941      -0.00162094
H        0.56805416       3.29472431       1.03254518      -0.00512775       0.04779861       0.01297628       0.00308988       0.01235801       0.00518713
C        0.75709873       1.97691212      -1.34015517      -0.04946864      -0.02302940      -0.04140251       0.01197088      -0.02216642      -0.00084062
N        0.47400624       2.44818248      -2.37790678       0.04360419       0.02056355       0.02263769      -0.00816782       0.00209536       0.00569430
15
Properties=species:S:1:pos:R:3:mp2_forces:R:3:forces:R:3 R1=H R2=NO2 R3=CH3 R4=CN lg=Cl nu=Cl rxn-id=281 mp2_energy=-36296.80498967612 energy=-36295.864279249596 free_energy=-36296.80498967612 pbc="F F F"
C        1.02631098      -0.03259361      -0.04622836       0.01921142      -0.05705814      -0.00631319       0.50655056      -0.02584863      -0.22717043
C        1.05271383       1.48586801       0.00757641       0.00527685       0.00795507       0.00364728       0.01691397      -0.00371950      -0.00366358
H        2.09786230       1.72681412       0.20764640       0.03071412       0.02323832      -0.00237805      -0.00264456       0.05302187       0.01020566
Cl      -1.21594884      -0.33579268       0.69668250      -0.05799353      -0.05434705      -0.03184144      -0.15137102      -0.02782338       0.05234803
Cl       2.99091284      -0.24269653      -1.05550426       0.00981109      -0.00719340      -0.01203738      -0.17069962       0.01697048       0.08113192
H        0.58882187      -0.63324505      -0.81885093      -0.00323474       0.01183285      -0.06040203      -0.13043348       0.01723670       0.07598873
N        1.47501608      -0.75395947       1.16006117      -0.00705346      -0.02547229      -0.00230165      -0.01955201       0.00190747       0.00534244
O        1.92371674      -0.06799415       2.07870980       0.01862522      -0.02812955       0.02592982      -0.01966138       0.00022345       0.00914914
O        1.42537930      -1.97422511       1.13449673       0.00252273       0.02653241       0.06732714      -0.01240170       0.00226109       0.00166348
C        0.21092561       2.25828463       1.03345033      -0.00187158       0.04167806      -0.00755434      -0.00945709      -0.00784016       0.00566504
H       -0.84588668       2.23371667       0.78707078      -0.01735517       0.01762463       0.06771938       0.00075872      -0.01462547      -0.00650393
H        0.35036604       1.83103989       2.02232575       0.01233924      -0.00199366      -0.03600699      -0.01117143      -0.00995205      -0.00202844
H        0.56800115       3.29317752       1.03208674      -0.00512775       0.04779861       0.01297628       0.00161569      -0.00797119      -0.00023995
C        0.75580960       1.97952515      -1.33948663      -0.04946864      -0.02302940      -0.04140251      -0.00474647       0.01095975       0.00132132
N        0.47498687       2.44787203      -2.37919937       0.04360419       0.02056355       0.02263769       0.00629982      -0.00480044      -0.00320944
15
Properties=species:S:1:pos:R:3:mp2_forces:R:3:forces:R:3 R1=H R2=NO2 R3=CH3 R4=CN lg=Cl nu=Cl rxn-id=281 mp2_energy=-36296.80498967612 energy=-36296.063593364255 free_energy=-36296.80498967612 pbc="F F F"
C        1.13543983      -0.04134290      -0.09875472       0.01921142      -0.05705814      -0.00631319       1.60673562      -0.12781981      -0.77194455
C        1.05766131       1.48320131       0.00563329       0.00527685       0.00795507       0.00364728       0.07372085      -0.03884473      -0.02713413
H        2.09750065       1.73898506       0.21026991       0.03071412       0.02323832      -0.00237805      -0.00416471       0.17989338       0.03995268
Cl      -1.24741490      -0.34042166       0.70612167      -0.05799353      -0.05434705      -0.03184144      -0.46593325      -0.07369585       0.14521426
Cl       2.94429361      -0.23912409      -1.03321494       0.00981109      -0.00719340      -0.01203738      -0.68698073       0.05288732       0.32547491
H        0.56667770      -0.62679922      -0.80060806      -0.00323474       0.01183285      -0.06040203      -0.32832458       0.09724935       0.27069003
N        1.47242116      -0.75286319       1.15996485      -0.00705346      -0.02547229      -0.00230165      -0.03748495       0.01585538      -0.00169959
O        1.91945075      -0.06701337       2.07933531       0.01862522      -0.02812955       0.02592982      -0.06357093       0.01202737       0.01135835
O        1.42196255      -1.97287288       1.13531716       0.00252273       0.02653241       0.06732714      -0.04687816       0.01948259       0.00795276
C        0.20885158       2.25608836       1.03492732      -0.00187158       0.04167806      -0.00755434      -0.03083066      -0.03096169       0.02078360
H       -0.84558888       2.22945912       0.78665017      -0.01735517       0.01762463       0.06771938       0.00504698      -0.05883699      -0.01117315