14
Properties=species:S:1:pos:R:3:mp2_forces:R:3:forces:R:3 R1=H R2=CN R3=NH2 R4=NO2 lg=Br nu=F rxn-id=463 mp2_energy=-84438.18655523282 energy=-84438.18655523282 free_energy=-84438.18655523282 pbc="F F F"
C        0.50666424      -0.08974411       0.04808563       0.00851695       0.09272077       0.01168926       0.00851695       0.09272077       0.01168926
C        0.82899515       1.42635033      -0.06193445       0.04729993       0.06848392       0.01077666       0.04729993       0.06848392       0.01077666
H        1.80635838       1.46398214      -0.53937632      -0.03931509       0.01143328      -0.01760054      -0.03931509       0.01143328      -0.01760054
Br      -1.30448122      -0.58529343      -0.63100914      -0.07524089       0.01226245      -0.01347890      -0.07524089       0.01226245      -0.01347890
F        2.76126092       0.31021143       0.88898063       0.04236321       0.00643081       0.06152066       0.04236321       0.00643081       0.06152066
H        1.19583602      -0.64369593      -0.57829803       0.02106863      -0.02680721       0.07262221       0.02106863      -0.02680721       0.07262221
C        0.55055810      -0.58469749       1.41860603       0.04178879      -0.02726129      -0.05568376       0.04178879      -0.02726129      -0.05568376
N        0.42225064      -1.06659134       2.48251048      -0.01218974      -0.01983405      -0.00634170      -0.01218974      -0.01983405      -0.00634170
N        0.79157790       2.04724632       1.23218581       0.00608618      -0.01570596       0.02369764       0.00608618      -0.01570596       0.02369764
H        0.94417463       3.04517288       1.12330311      -0.01244664      -0.05229821      -0.01977093      -0.01244664      -0.05229821      -0.01977093
H        1.64218144       1.62856590       1.63224022       0.00917725      -0.00855265      -0.01433586       0.00917725      -0.00855265      -0.01433586
N       -0.10578695       2.11852237      -1.01838775      -0.06938903      -0.05907433      -0.01834022      -0.06938903      -0.05907433      -0.01834022
O       -0.96826087       2.88145171      -0.59163550       0.04461679       0.01265627      -0.00119859       0.04461679       0.01265627      -0.00119859
O        0.08950281       1.87165432      -2.20879634      -0.01233636       0.00554618      -0.03355593      -0.01233636       0.00554618      -0.03355593
14
Properties=species:S:1:pos:R:3:mp2_forces:R:3:forces:R:3 R1=H R2=CN R3=NH2 R4=NO2 lg=Br nu=F rxn-id=463 mp2_energy=-84438.18655523282 energy=-84438.24226974562 free_energy=-84438.18655523282 pbc="F F F"
C        0.53190819      -0.08828935       0.04161903       0.00851695       0.09272077       0.01168926      -0.01547819      -0.00321531       0.00513049
C        0.83441231       1.42661337      -0.07254941       0.04729993       0.06848392       0.01077666      -0.01548996      -0.00557273      -0.00166937
H        1.80316307       1.48222241      -0.56927658      -0.03931509       0.01143328      -0.01760054      -0.01599033      -0.01727925      -0.00238671
Br      -1.27070044      -0.57662155      -0.65624814      -0.07524089       0.01226245      -0.01347890      -0.00087740      -0.00954991      -0.01850480
F        2.77632404       0.31870037       0.93816030       0.04236321       0.00643081       0.06152066       0.02327091       0.06074622       0.03147054
H        1.24506726      -0.65247987      -0.54662085       0.02106863      -0.02680721       0.07262221      -0.01371537      -0.00918096       0.01328707
C        0.52753912      -0.57656510       1.41392448       0.04178879      -0.02726129      -0.05568376      -0.01043749       0.00154001       0.00609905
N        0.35442304      -1.06321966       2.46941969      -0.01218974      -0.01983405      -0.00634170       0.01529301      -0.00745048       0.00587259
N        0.80785714       2.03684508       1.22285414       0.00608618      -0.01570596       0.02369764       0.00271583      -0.01656101       0.00257886
H        0.93865038       3.03884814       1.11212823      -0.01244664      -0.05229821      -0.01977093      -0.00175755      -0.01696369       0.00474338
H        1.67490970       1.61430680       1.59799105       0.00917725      -0.00855265      -0.01433586       0.02087924      -0.02608948      -0.03220634
N       -0.12495207       2.11382050      -1.00502725      -0.06938903      -0.05907433      -0.01834022      -0.00215005       0.00905000      -0.00336097
O       -0.94595200       2.90305854      -0.55102630       0.04461679       0.01265627      -0.00119859       0.01242515       0.02742781      -0.00730608
O        0.00818144       1.84589543      -2.19887402      -0.01233636       0.00554618      -0.03355593       0.00131218       0.01309879      -0.00374773
14
Properties=species:S:1:pos:R:3:mp2_forces:R:3:forces:R:3 R1=H R2=CN R3=NH2 R4=NO2 lg=Br nu=F rxn-id=463 mp2_energy=-84438.18655523282 energy=-84438.2306357177 free_energy=-84438.18655523282 pbc="F F F"
C        0.54004144      -0.08703890       0.04049171       0.00851695       0.09272077       0.01168926      -0.03017489       0.00274395       0.00301600
C        0.84357598       1.43029999      -0.06748863       0.04729993       0.06848392       0.01077666      -0.03030794      -0.00880600      -0.00544650
H        1.80877108       1.50070558      -0.56795885      -0.03931509       0.01143328      -0.01760054      -0.01501160      -0.05753078       0.01398536
Br      -1.26932220      -0.57344486      -0.64715606      -0.07524089       0.01226245      -0.01347890      -0.00328808      -0.00626787      -0.02160827
F        2.76504491       0.27449985       0.89467873       0.04236321       0.00643081       0.06152066       0.04480309       0.08420067       0.06003980
H        1.24860656      -0.65235874      -0.55311812       0.02106863      -0.02680721       0.07262221      -0.01211247       0.00707253       0.02537672
C        0.53335996      -0.57797264       1.41232912       0.04178879      -0.02726129      -0.05568376      -0.00812746       0.01191599       0.00224140
N        0.34703377      -1.05963829       2.46816704      -0.01218974      -0.01983405      -0.00634170       0.02996861      -0.00280634       0.00110407
N        0.80419290       2.04869582       1.22543423       0.00608618      -0.01570596       0.02369764      -0.00358398      -0.02714350       0.00296569
H        0.93661312       3.05172878       1.11280157      -0.01244664      -0.05229821      -0.01977093      -0.00296551      -0.03036764       0.00332371
H        1.65793711       1.63829300       1.62783600       0.00917725      -0.00855265      -0.01433586       0.02840250      -0.05029764      -0.06132281
N       -0.12176207       2.10731441      -1.00280888      -0.06938903      -0.05907433      -0.01834022      -0.00302684       0.01720703      -0.00526555
O       -0.95086595       2.88853223      -0.55223341       0.04461679       0.01265627      -0.00119859       0.00861537       0.03687148      -0.01176273
O        0.01760457       1.83351885      -2.19450007      -0.01233636       0.00554618      -0.03355593      -0.00319079       0.02320811      -0.00664688
14
Properties=species:S:1:pos:R:3:mp2_forces:R:3:forces:R:3 R1=H R2=CN R3=NH2 R4=NO2 lg=Br nu=F rxn-id=463 mp2_energy=-84438.18655523282 energy=-84438.2072405913 free_energy=-84438.18655523282 pbc="F F F"
C        0.55996595      -0.08737432       0.04080463       0.00851695       0.09272077       0.01168926      -0.09899481       0.00409789      -0.01979812
C        0.86076643       1.43541652      -0.06789350       0.04729993       0.06848392       0.01077666      -0.06122778      -0.02026053      -0.00390769
H        1.81543372       1.53537609      -0.58492506      -0.03931509       0.01143328      -0.01760054      -0.01706431      -0.12437848       0.05681748
Br      -1.26881619      -0.56522877      -0.62432020      -0.07524089       0.01226245      -0.01347890       0.02012616       0.00361233      -0.02803097
F        2.74035766       0.21956236       0.87420071       0.04236321       0.00643081       0.06152066       0.10585066       0.11743572       0.08698416
H        1.25733014      -0.65885328      -0.56229582       0.02106863      -0.02680721       0.07262221      -0.02021070       0.03665238       0.04555734
C        0.54465540      -0.58413981       1.41225837       0.04178879      -0.02726129      -0.05568376      -0.00365065       0.02734510      -0.01470640
N        0.33370742      -1.06758764       2.46335049      -0.01218974      -0.01983405      -0.00634170       0.05207260       0.01370873      -0.01238292
N        0.80356824       2.06250125       1.21939620       0.00608618      -0.01570596       0.02369764      -0.01702335      -0.04082324       0.01004194
H        0.92829195       3.06691155       1.10796530      -0.01244664      -0.05229821      -0.01977093       0.00912731      -0.04231585      -0.00048161
H        1.63944305       1.66483069       1.65927952       0.00917725      -0.00855265      -0.01433586       0.03547138      -0.07077136      -0.08969421
N       -0.12043333       2.10114985      -1.00152852      -0.06938903      -0.05907433      -0.01834022      -0.00009061       0.02940297      -0.00704396
O       -0.95198885       2.87618750      -0.54778630       0.04461679       0.01265627      -0.00119859       0.00103447       0.04152461      -0.01587549
O        0.01854962       1.82438311      -2.19203145      -0.01233636       0.00554618      -0.03355593      -0.00542037       0.02476973      -0.00747954
14
Properties=species:S:1:pos:R:3:mp2_forces:R:3:forces:R:3 R1=H R2=CN R3=NH2 R4=NO2 lg=Br nu=F rxn-id=463 mp2_energy=-84438.18655523282 energy=-84438.1538815096 free_energy=-84438.18655523282 pbc="F F F"
C        0.59750447      -0.08525638       0.04598744       0.00851695       0.09272077       0.01168926      -0.44013284      -0.05054616      -0.14466706
C        0.88315575       1.44435691      -0.06252038       0.04729993       0.06848392       0.01077666      -0.09054121      -0.04902780      -0.00495094
H        1.82653658       1.57391345      -0.59383456      -0.03931509       0.01143328      -0.01760054      -0.01956363      -0.16774304       0.07370956
Br      -1.27972927      -0.56922607      -0.61609978      -0.07524089       0.01226245      -0.01347890       0.16753513       0.05744918       0.02103379
F        2.70457521       0.16839982       0.83284205       0.04236321       0.00643081       0.06152066       0.25551422       0.13260366       0.15149434
H        1.26426202      -0.66328569      -0.58709820       0.02106863      -0.02680721       0.07262221      -0.00712142       0.06806284       0.11985783
C        0.54458212      -0.59208625       1.41334933       0.04178879      -0.02726129      -0.05568376       0.05419132       0.04860686      -0.03912110
N        0.31182201      -1.06695713       2.46464761      -0.01218974      -0.01983405      -0.00634170       0.06805342       0.02674731      -0.04434704
N        0.80947894       2.08120020       1.21865470       0.00608618      -0.01570596       0.02369764      -0.03710355      -0.05741988       0.01219750
H        0.92524639       3.08594552       1.10843755      -0.01244664      -0.05229821      -0.01977093       0.01552659      -0.04846725      -0.01043795
H        1.62729068       1.69817473       1.69543521       0.00917725      -0.00855265      -0.01433586       0.03430199      -0.08439290      -0.10452250
N       -0.11885624       2.08747245      -0.99601601      -0.06938903      -0.05907433      -0.01834022       0.00869741       0.05219719      -0.00691504
O       -0.95549941       2.85548120      -0.54247425       0.04461679       0.01265627      -0.00119859      -0.00504453       0.04522579      -0.01564320
O        0.02046195       1.80500231      -2.18483631      -0.01233636       0.00554618      -0.03355593      -0.00431290       0.02670420      -0.00768818
14
Properties=species:S:1:pos:R:3:mp2_forces:R:3:forces:R:3 R1=H R2=CN R3=NH2 R4=NO2 lg=Br nu=F rxn-id=463 mp2_energy=-84438.18655523282 energy=-84438.0567440244 free_energy=-84438.18655523282 pbc="F F F"
C        0.66587329      -0.07797953       0.06912991       0.00851695       0.09272077       0.01168926      -0.83208304      -0.12900805      -0.30394164
C        0.89701653       1.45166224      -0.06183999       0.04729993       0.06848392       0.01077666      -0.05138293      -0.05480186       0.00832617
H        1.82881277       1.60043486      -0.60596372      -0.03931509       0.01143328      -0.01760054      -0.00280363      -0.13574457       0.06371640
Br      -1.30578646      -0.57721427      -0.61934298      -0.07524089       0.01226245      -0.01347890       0.29970183       0.09703810       0.07928035
F        2.66355363       0.14926291       0.80976916       0.04236321       0.00643081       0.06152066       0.32033021       0.10987211       0.17600558
H        1.26544841      -0.67452103      -0.60495793       0.02106863      -0.02680721       0.07262221       0.06564148       0.07322465       0.13840696
C        0.53707160      -0.60065955       1.42028817       0.04178879      -0.02726129      -0.05568376       0.13086979       0.05241579      -0.02521036
N        0.30223486      -1.07222861       2.47243053      -0.01218974      -0.01983405      -0.00634170       0.05200010       0.02617236      -0.04687826
N        0.81527262       2.08912245       1.21665423       0.00608618      -0.01570596       0.02369764      -0.03453459      -0.04209635       0.00988244
H        0.92191426       3.09284625       1.11018043      -0.01244664      -0.05229821      -0.01977093       0.01316484      -0.02995682      -0.00994835
H        1.62229371       1.71060900       1.71076008       0.00917725      -0.00855265      -0.01433586       0.03042776      -0.06072649      -0.07924471
N       -0.12042670       2.07996936      -0.99548102      -0.06938903      -0.05907433      -0.01834022       0.01869262       0.05066880       0.00253594
O       -0.95394231       2.85038700      -0.54111330       0.04461679       0.01265627      -0.00119859      -0.00634050       0.02966703      -0.00954822
O        0.02149498       1.80144402      -2.18403919      -0.01233636       0.00554618      -0.03355593      -0.00368394       0.01327530      -0.00338231
14
Properties=species:S:1:pos:R:3:mp2_forces:R:3:forces:R:3 R1=H R2=CN R3=NH2 R4=NO2 lg=Br nu=F rxn-id=463 mp2_energy=-84438.18655523282 energy=-84437.97273114145 free_energy=-84438.18655523282 pbc="F F F"
C        0.73292120      -0.06740160       0.09367868       0.00851695       0.09272077       0.01168926      -0.61908102      -0.09626258      -0.23146728
C        0.90111927       1.45619691      -0.06231621       0.04729993       0.06848392       0.01077666      -0.00757938      -0.02589617       0.01180746
H        1.82915212       1.61137739      -0.61078654      -0.03931509       0.01143328      -0.01760054       0.00521524      -0.07295104       0.03827526
Br      -1.33002605      -0.58529671      -0.62571101      -0.07524089       0.01226245      -0.01347890       0.19628090       0.06308454       0.05592916
F        2.63725805       0.14010487       0.79504698       0.04236321       0.00643081       0.06152066       0.18151383       0.06380150       0.10778165
H        1.25995536      -0.68008110      -0.61642735       0.02106863      -0.02680721       0.07262221       0.08202433       0.03769448       0.08038502
C        0.52656873      -0.60510079       1.42222020       0.04178879      -0.02726129      -0.05568376       0.11363619       0.03013816       0.00245779
N        0.29816860      -1.07440797       2.47618963      -0.01218974      -0.01983405      -0.00634170       0.02956590       0.01287356      -0.02221073
N        0.81811374       2.09260437       1.21607747       0.00608618      -0.01570596       0.02369764      -0.01757207      -0.01921414       0.00700674
H        0.92046630       3.09537072       1.11114387      -0.01244664      -0.05229821      -0.01977093       0.00481064      -0.01341843      -0.00438420
H        1.62012470       1.71599910       1.71717768       0.00917725      -0.00855265      -0.01433586       0.02064671      -0.03051316      -0.04304394
N       -0.12176915       2.07582644      -0.99561839      -0.06938903      -0.05907433      -0.01834022       0.01466538       0.02967003       0.00518681
O       -0.95319986       2.84821139      -0.54063975       0.04461679       0.01265627      -0.00119859      -0.00263017       0.01685376      -0.00676352
O        0.02197815       1.79973209      -2.18356088      -0.01233636       0.00554618      -0.03355593      -0.00149648       0.00413950      -0.00096022
14
Properties=species:S:1:pos:R:3:mp2_forces:R:3:forces:R:3 R1=H R2=CN R3=NH2 R4=NO2 lg=Br nu=F rxn-id=463 mp2_energy=-84438.18655523282 energy=-84437.9333750481 free_energy=-84438.18655523282 pbc="F F F"
C        0.80377307      -0.05618798       0.12025589       0.00851695       0.09272077       0.01168926      -0.09289923      -0.01235192      -0.03411234
C        0.90188388       1.45932673      -0.06336317       0.04729993       0.06848392       0.01077666      -0.00060871      -0.00132635       0.00405623
H        1.82864934       1.61971160      -0.61471101      -0.03931509       0.01143328      -0.01760054       0.00166286      -0.00986927       0.00891005
Br      -1.35252338      -0.59282370      -0.63213624      -0.07524089       0.01226245      -0.01347890       0.02568826       0.00653326       0.00701847
F        2.61592711       0.13243390       0.78202303       0.04236321       0.00643081       0.06152066       0.02278033       0.00701520       0.01113440
H        1.25020039      -0.68399769      -0.62617166       0.02106863      -0.02680721       0.07262221       0.01171128       0.00651238       0.00576395
C        0.51364431      -0.60886459       1.42186401       0.04178879      -0.02726129      -0.05568376       0.01803605       0.00137497       0.00164593
N        0.29495960      -1.07595742       2.47878808      -0.01218974      -0.01983405      -0.00634170       0.00534591       0.00070529      -0.00147290
N        0.82018345       2.09491545       1.21560958       0.00608618      -0.01570596       0.02369764      -0.00176946      -0.00140857       0.00355706
H        0.91940683       3.09703124       1.11185417      -0.01244664      -0.05229821      -0.01977093      -0.00308388      -0.00093074       0.00092225
H        1.61818050       1.72012399       1.72209564       0.00917725      -0.00855265      -0.01433586       0.00631340       0.00035960      -0.00611664
N       -0.12325741       2.07238314      -0.99612866      -0.06938903      -0.05907433      -0.01834022       0.00341463       0.00390353       0.00142924
O       -0.95262489       2.84663218      -0.54034014       0.04461679       0.01265627      -0.00119859       0.00155291       0.00509901      -0.00468735
O        0.02242840       1.79840824      -2.18316515      -0.01233636       0.00554618      -0.03355593       0.00185565      -0.00561639       0.00195166
14
Properties=species:S:1:pos:R:3:mp2_forces:R:3:forces:R:3 R1=H R2=CN R3=NH2 R4=NO2 lg=Br nu=F rxn-id=463 mp2_energy=-84438.18655523282 energy=-84437.9599184901 free_energy=-84438.18655523282 pbc="F F F"
C        0.87793088      -0.04588364       0.14809257       0.00851695       0.09272077       0.01168926       0.62765537       0.08816251       0.23652136
C        0.90016655       1.46047868      -0.06429389       0.04729993       0.06848392       0.01077666      -0.01612233       0.01094682      -0.00545835
H        1.82731260       1.62625733      -0.61835587      -0.03931509       0.01143328      -0.01760054      -0.01138454       0.05494745      -0.02736239
Br      -1.37051584      -0.59932497      -0.63775452      -0.07524089       0.01226245      -0.01347890      -0.15259048      -0.05605412      -0.04802520
F        2.59481716       0.12495923       0.76894920       0.04236321       0.00643081       0.06152066      -0.18410428      -0.06484748      -0.11541410
H        1.23648078      -0.68525941      -0.63303495       0.02106863      -0.02680721       0.07262221      -0.11826711      -0.00795645      -0.06180011
C        0.49981915      -0.61162269       1.41919765       0.04178879      -0.02726129      -0.05568376      -0.11512331      -0.02658354      -0.02202837
N        0.29226598      -1.07650920       2.47986241      -0.01218974      -0.01983405      -0.00634170      -0.02084536      -0.00624103       0.01046568
N        0.82157175       2.09615363       1.21532077       0.00608618      -0.01570596       0.02369764       0.01203315       0.01064406       0.00037444
H        0.91866780       3.09811763       1.11232043      -0.01244664      -0.05229821      -0.01977093      -0.01088396       0.00925658       0.00540554
H        1.61642407       1.72344631       1.72598157       0.00917725      -0.00855265      -0.01433586      -0.01074716       0.03230955       0.03159851
N       -0.12484257       2.06939227      -0.99682056      -0.06938903      -0.05907433      -0.01834022      -0.01224183      -0.02499046      -0.00571264
O       -0.95219825       2.84552610      -0.54018651       0.04461679       0.01265627      -0.00119859       0.00608961      -0.00490903      -0.00346877
O        0.02293112       1.79740380      -2.18280392      -0.01233636       0.00554618      -0.03355593       0.00653222      -0.01468486       0.00490440
14
Properties=species:S:1:pos:R:3:mp2_forces:R:3:forces:R:3 R1=H R2=CN R3=NH2 R4=NO2 lg=Br nu=F rxn-id=463 mp2_energy=-84438.18655523282 energy=-84438.07075597112 free_energy=-84438.18655523282 pbc="F F F"
C        0.94824464      -0.03798645       0.17310526       0.00851695       0.09272077       0.01168926       1.57126775       0.17713807       0.55985637
C        0.89828916       1.46073695      -0.06465662       0.04729993       0.06848392       0.01077666      -0.04373837       0.00687491      -0.00588387
H        1.82597017       1.63159337      -0.62146741      -0.03931509       0.01143328      -0.01760054      -0.03044179       0.11868451      -0.06636586
Br      -1.38579290      -0.60472925      -0.64274858      -0.07524089       0.01226245      -0.01347890      -0.34170522      -0.12090758      -0.11190502
F        2.56978009       0.11779744       0.75597145       0.04236321       0.00643081       0.06152066      -0.56567475      -0.16094805      -0.29431764
H        1.22401187      -0.68501871      -0.63713017       0.02106863      -0.02680721       0.07262221      -0.27994909       0.00777583      -0.09449360
C        0.48905379      -0.61320510       1.41652312       0.04178879      -0.02726129      -0.05568376      -0.23798775      -0.03883258      -0.05862221
N        0.29029300      -1.07659615       2.48022540      -0.01218974      -0.01983405      -0.00634170      -0.04193779      -0.00408932       0.00981382
N        0.82257296       2.09692377       1.21512794       0.00608618      -0.01570596       0.02369764       0.02250804       0.01691555      -0.00166527
H        0.91807055       3.09907205       1.11267245      -0.01244664      -0.05229821      -0.01977093      -0.01820263       0.02090592       0.00918281
H        1.61495073       1.72604624       1.72892919       0.00917725      -0.00855265      -0.01433586      -0.02870482       0.06166312       0.06404775
N       -0.12614996       2.06703124      -0.99744996      -0.06938903      -0.05907433      -0.01834022      -0.02820188      -0.05205756      -0.01424316
O       -0.95183454       2.84474157      -0.54007658       0.04461679       0.01265627      -0.00119859       0.01076187      -0.01242084      -0.00253964
O        0.02337163       1.79672814      -2.18255111      -0.01233636       0.00554618      -0.03355593       0.01200645      -0.02070195       0.00713550
14
Properties=species:S:1:pos:R:3:mp2_forces:R:3:forces:R:3 R1=H R2=CN R3=NH2 R4=NO2 lg=Br nu=F rxn-id=463 mp2_energy=-84438.18655523282 energy=-84438.33964415213 free_energy=-84438.18655523282 pbc="F F F"
C        1.02652174      -0.02974870       0.20021274       0.00851695       0.09272077       0.01168926       3.07037078       0.32458687       1.06341737
C        0.89886022       1.46018489      -0.06392874       0.04729993       0.06848392       0.01077666       0.02121092      -0.02091813       0.03074179
H        1.82436734       1.63668247      -0.62437528      -0.03931509       0.01143328      -0.01760054      -0.06343280       0.19936515      -0.11114123
Br      -1.39865305      -0.60930265      -0.64703650      -0.07524089       0.01226245      -0.01347890      -0.50696687      -0.17942777      -0.16921704
F        2.52287265       0.10794285       0.73530024       0.04236321       0.00643081       0.06152066      -1.84675147      -0.38668160      -0.81496285
H        1.21578290      -0.68314638      -0.63777125       0.02106863      -0.02680721       0.07262221      -0.32279128       0.07603321      -0.02680362
C        0.48253346      -0.61391660       1.41457931       0.04178879      -0.02726129      -0.05568376      -0.25305384      -0.03446668      -0.06773330
N        0.28898528      -1.07633014       2.48010626      -0.01218974      -0.01983405      -0.00634170      -0.04826884       0.01069766      -0.00906237
N        0.82335939       2.09729664       1.21491373       0.00608618      -0.01570596       0.02369764       0.03114829       0.01373022      -0.00583634
H        0.91760057       3.09989744       1.11288337      -0.01244664      -0.05229821      -0.01977093      -0.02345647       0.03145860       0.00952329
H        1.61311634       1.72871591       1.73187200       0.00917725      -0.00855265      -0.01433586      -0.06746740       0.10771897       0.11336530
N       -0.12720566       2.06468950      -0.99809242      -0.06938903      -0.05907433      -0.01834022      -0.04075641      -0.09106361      -0.02571952
O       -0.95126613       2.84395420      -0.53992019       0.04461679       0.01265627      -0.00119859       0.02518147      -0.02552046       0.00103110
O        0.02395616       1.79621569      -2.18226888      -0.01233636       0.00554618      -0.03355593       0.02503392      -0.02551242       0.01239742
14
Properties=species:S:1:pos:R:3:mp2_forces:R:3:forces:R:3 R1=H R2=CN R3=NH2 R4=NO2 lg=Br nu=F rxn-id=463 mp2_energy=-84438.18655523282 energy=-84438.62976946436 free_energy=-84438.18655523282 pbc="F F F"
C        1.10087641      -0.02473706       0.22579882       0.00851695       0.09272077       0.01168926       1.29081504       0.08068118       0.44935217
C        0.90536312       1.45995709      -0.06077220       0.04729993       0.06848392       0.01077666       0.10716577      -0.00335412       0.05422809
H        1.82276064       1.65002483      -0.63022961      -0.03931509       0.01143328      -0.01760054      -0.03209898       0.23877787      -0.10496283
Br      -1.43023345      -0.62099682      -0.65815855      -0.07524089       0.01226245      -0.01347890      -0.56239629      -0.19853825      -0.19630437
F        2.49801157       0.09553633       0.71981567       0.04236321       0.00643081       0.06152066      -0.40554948      -0.21356607      -0.25733186
H        1.20250758      -0.67772607      -0.63655511       0.02106863      -0.02680721       0.07262221      -0.23574953       0.09104715       0.01763570
C        0.47627299      -0.61403689       1.41077919       0.04178879      -0.02726129      -0.05568376      -0.10490710       0.00106581      -0.08484791
N        0.28594105      -1.07416982       2.47797514      -0.01218974      -0.01983405      -0.00634170      -0.05168810       0.02061240      -0.00961724
N        0.82565319       2.09879318       1.21495091       0.00608618      -0.01570596       0.02369764       0.03915539       0.02500794       0.00138016
H        0.91674797       3.10253239       1.11358411      -0.01244664      -0.05229821      -0.01977093      -0.02251603       0.04303417       0.01307549
H        1.61073033       1.73429170       1.73921876       0.00917725      -0.00855265      -0.01433586      -0.03888324       0.09791445       0.12629861
N       -0.12946921       2.05857984      -0.99894003      -0.06938903      -0.05907433      -0.01834022      -0.04067136      -0.10377196      -0.01879216
O       -0.94963771       2.84084241      -0.53912507       0.04461679       0.01265627      -0.00119859       0.03218106      -0.04395174       0.00718354
O        0.02530670       1.79424400      -2.18186764      -0.01233636       0.00554618      -0.03355593       0.02514286      -0.03495883       0.00270262
14
Properties=species:S:1:pos:R:3:mp2_forces:R:3:forces:R:3 R1=H R2=CN R3=NH2 R4=NO2 lg=Br nu=F rxn-id=463 mp2_energy=-84438.18655523282 energy=-84438.82200631664 free_energy=-84438.18655523282 pbc="F F F"
C        1.19090289      -0.01788405       0.25033098       0.00851695       0.09272077       0.01168926       0.19607162       0.01702250       0.05563341
C        0.94351554       1.46755365      -0.04251649       0.04729993       0.06848392       0.01077666       0.08695618       0.01695023       0.04043735
H        1.82729516       1.70845175      -0.63700348      -0.03931509       0.01143328      -0.01760054       0.01129890       0.12620012      -0.01359863
Br      -1.54687940      -0.67112251      -0.70636482      -0.07524089       0.01226245      -0.01347890      -0.26950430      -0.11650363      -0.10952908
F        2.54808545       0.04036736       0.68563989       0.04236321       0.00643081       0.06152066       0.10606659      -0.11049575      -0.07693474
H        1.15374452      -0.64894938      -0.63301038       0.02106863      -0.02680721       0.07262221      -0.10886165       0.06517896       0.01334286
C        0.48425816      -0.59768456       1.40063473       0.04178879      -0.02726129      -0.05568376       0.02128269       0.03183329      -0.01806807