15
Properties=species:S:1:pos:R:3:mp2_forces:R:3:forces:R:3 R1=CN R2=CN R3=NH2 R4=NH2 lg=Cl nu=Cl rxn-id=1467 mp2_energy=-35185.493258940136 energy=-35185.49325208208 free_energy=-35185.49325208208 pbc="F F F"
C        0.50909811      -0.05244288      -0.03390937      -0.00900658       0.00361950      -0.01160589      -0.00904260       0.00362234      -0.01157380
C        0.86306826       1.46417751      -0.03746355      -0.00482315      -0.00445938      -0.00007191      -0.00484231      -0.00445591      -0.00003790
H        1.92577872       1.48731866      -0.28876484      -0.01236050      -0.00666480      -0.00030012      -0.01235228      -0.00666536      -0.00031214
Cl      -1.29039698      -0.26470640      -0.21530431       0.00693179       0.01337296       0.01280608       0.00697525       0.01338142       0.01279694
Cl       3.67738383       0.29325016       0.78143441       0.01313821       0.08048358       0.05727392       0.01313761       0.08048162       0.05727550
C        1.12774268      -0.70929634      -1.18625718      -0.04965759       0.00323998       0.02478007      -0.04965818       0.00323957       0.02477617
N        1.54388232      -1.22587048      -2.15502702      -0.00807282      -0.02282313      -0.02102330      -0.00807424      -0.02282746      -0.02104369
C        0.83662178      -0.72533906       1.22680324      -0.01373157      -0.02556974      -0.00147895      -0.01369602      -0.02558475      -0.00147568
N        0.86488789      -1.29022327       2.25765905       0.01573874      -0.01867292      -0.04119942       0.01570025      -0.01865675      -0.04120397
N        0.59297855       1.98498642       1.29726797       0.00935904      -0.00556908       0.00325380       0.00938587      -0.00557065       0.00324846
H        0.71475778       2.99168351       1.25159547       0.00523306      -0.00517535      -0.00789106       0.00522206      -0.00518264      -0.00788939
H        1.33818959       1.63942962       1.90079731       0.01432374      -0.00879333      -0.00096629       0.01431660      -0.00878752      -0.00097401
N        0.11783241       2.12482151      -1.07990269       0.00363310      -0.00490871      -0.00705839       0.00362060      -0.00490614      -0.00705225
H        0.59007031       2.98227474      -1.33421786       0.01336017      -0.01370022      -0.01822779       0.01336296      -0.01370874      -0.01823386
H       -0.81532233       2.34365442      -0.74996728       0.01593435       0.01562065       0.01170926       0.01594445       0.01562095       0.01169964
15
Properties=species:S:1:pos:R:3:mp2_forces:R:3:forces:R:3 R1=CN R2=CN R3=NH2 R4=NH2 lg=Cl nu=Cl rxn-id=1467 mp2_energy=-35185.493258940136 energy=-35185.481011143085 free_energy=-35185.49325208208 pbc="F F F"
C        0.52658070      -0.04621855      -0.03736868      -0.00900658       0.00361950      -0.01160589      -0.02571209      -0.00244576      -0.00626353
C        0.87444576       1.47032809      -0.03899055      -0.00482315      -0.00445938      -0.00007191      -0.00476927      -0.01252878      -0.00116428
H        1.93260130       1.50707262      -0.30712448      -0.01236050      -0.00666480      -0.00030012      -0.00566321      -0.02466448       0.00685491
Cl      -1.27280355      -0.26736935      -0.22011658       0.00693179       0.01337296       0.01280608      -0.01992891       0.00770974       0.01241340
Cl       3.63820578       0.26085916       0.84983670       0.01313821       0.08048358       0.05727392       0.03039632       0.08450328       0.03846246
C        1.13263667      -0.70119713      -1.19740839      -0.04965759       0.00323998       0.02478007      -0.02916903      -0.00876539      -0.00999250
N        1.52631312      -1.21966325      -2.17444696      -0.00807282      -0.02282313      -0.02102330      -0.01243879      -0.01294047      -0.00244070
C        0.84815312      -0.72095780       1.22474122      -0.01373157      -0.02556974      -0.00147895      -0.00131329      -0.01268702      -0.01228919
N        0.83212661      -1.29105591       2.25307047       0.01573874      -0.01867292      -0.04119942       0.03418998      -0.01787832      -0.01305636
N        0.62200899       1.99385090       1.29804006       0.00935904      -0.00556908       0.00325380      -0.00829621      -0.01219552      -0.00397531
H        0.74117972       3.00039795       1.23774772       0.00523306      -0.00517535      -0.00789106      -0.01317387      -0.01213671      -0.00335558
H        1.38132892       1.65928912       1.89358649       0.01432374      -0.00879333      -0.00096629      -0.00720031      -0.00763342      -0.00181859
N        0.11189882       2.11602133      -1.08301469       0.00363310      -0.00490871      -0.00705839       0.00335625       0.00043293       0.00062300
H        0.53976339       3.00261614      -1.30360948       0.01336017      -0.01370022      -0.01822779       0.04334353      -0.02268985      -0.02575256
H       -0.83786641       2.27974480      -0.76019950       0.01593435       0.01562065       0.01170926       0.01637889       0.05391976       0.02175483
15
Properties=species:S:1:pos:R:3:mp2_forces:R:3:forces:R:3 R1=CN R2=CN R3=NH2 R4=NH2 lg=Cl nu=Cl rxn-id=1467 mp2_energy=-35185.493258940136 energy=-35185.46020527765 free_energy=-35185.49325208208 pbc="F F F"
C        0.54311935      -0.04071554      -0.03426096      -0.00900658       0.00361950      -0.01160589      -0.03113595      -0.00074221      -0.00731177
C        0.87954566       1.47967915      -0.04077909      -0.00482315      -0.00445938      -0.00007191      -0.00533240      -0.01458539      -0.00115004
H        1.93393470       1.52701856      -0.31958705      -0.01236050      -0.00666480      -0.00030012      -0.01021026      -0.02909923       0.00694141
Cl      -1.25541568      -0.27501209      -0.23283212       0.00693179       0.01337296       0.01280608      -0.01738658       0.00787447       0.01202700
Cl       3.60493242       0.18538747       0.82596971       0.01313821       0.08048358       0.05727392       0.03206617       0.08475203       0.03534243
C        1.15966499      -0.69575516      -1.18854441      -0.04965759       0.00323998       0.02478007      -0.02756910      -0.01022268      -0.00898633
N        1.54589159      -1.20958898      -2.17106110      -0.00807282      -0.02282313      -0.02102330      -0.00729846      -0.01446557      -0.00116239
C        0.84816469      -0.70992128       1.23494821      -0.01373157      -0.02556974      -0.00147895       0.00187770      -0.01317460      -0.01220491
N        0.80199132      -1.27420472       2.26596595       0.01573874      -0.01867292      -0.04119942       0.03792974      -0.01735415      -0.01039918
N        0.63452761       2.00346328       1.29833001       0.00935904      -0.00556908       0.00325380      -0.01149153      -0.01390636      -0.00581807
H        0.75601225       3.01014615       1.23858393       0.00523306      -0.00517535      -0.00789106      -0.01499348      -0.01416817      -0.00490833
H        1.39671161       1.66615801       1.88927298       0.01432374      -0.00879333      -0.00096629      -0.01168866      -0.00992031      -0.00242476
N        0.10577169       2.11696893      -1.08213232       0.00363310      -0.00490871      -0.00705839       0.00078248       0.00163475       0.00145296
H        0.49720874       3.02759386      -1.27419815       0.01336017      -0.01370022      -0.01822779       0.05076430      -0.02318591      -0.02968161
H       -0.85548804       2.23250048      -0.77493226       0.01593435       0.01562065       0.01170926       0.01368602       0.06656333       0.02828359
15
Properties=species:S:1:pos:R:3:mp2_forces:R:3:forces:R:3 R1=CN R2=CN R3=NH2 R4=NH2 lg=Cl nu=Cl rxn-id=1467 mp2_energy=-35185.493258940136 energy=-35185.43878053407 free_energy=-35185.49325208208 pbc="F F F"
C        0.56107170      -0.03455379      -0.03094322      -0.00900658       0.00361950      -0.01160589      -0.03987554      -0.00049912      -0.00935043
C        0.88720144       1.48992372      -0.04115742      -0.00482315      -0.00445938      -0.00007191      -0.01030258      -0.01794373      -0.00023852
H        1.93809728       1.55171301      -0.32848082      -0.01236050      -0.00666480      -0.00030012      -0.01807614      -0.04546889       0.00758969
Cl      -1.23693301      -0.28080524      -0.24464463       0.00693179       0.01337296       0.01280608      -0.01407215       0.00813790       0.01200676
Cl       3.57056339       0.11888399       0.79771275       0.01313821       0.08048358       0.05727392       0.04474668       0.08280252       0.03561187
C        1.18623722      -0.69077342      -1.17997245      -0.04965759       0.00323998       0.02478007      -0.02919498      -0.01176886      -0.00577972
N        1.55720994      -1.20392006      -2.16895779      -0.00807282      -0.02282313      -0.02102330       0.00215244      -0.01147130       0.00297988
C        0.84793230      -0.70035341       1.24454623      -0.01373157      -0.02556974      -0.00147895       0.00273589      -0.01327411      -0.01419914
N        0.77047825      -1.26158703       2.27578521       0.01573874      -0.01867292      -0.04119942       0.04661784      -0.01320838      -0.00814179
N        0.64577113       2.01262793       1.30021420       0.00935904      -0.00556908       0.00325380      -0.01576131      -0.01518952      -0.00767435
H        0.76625026       3.02002489       1.24251041       0.00523306      -0.00517535      -0.00789106      -0.01560102      -0.01730268      -0.00905111
H        1.41034455       1.67467316       1.88831716       0.01432374      -0.00879333      -0.00096629      -0.01642801      -0.01339134      -0.00588440
N        0.10249541       2.11608437      -1.08081770       0.00363310      -0.00490871      -0.00705839      -0.00394810       0.00655424       0.00138292
H        0.45735042       3.04648128      -1.24993808       0.01336017      -0.01370022      -0.01822779       0.05807406      -0.02044239      -0.03063706
H       -0.86749734       2.18529871      -0.78943051       0.01593435       0.01562065       0.01170926       0.00893293       0.08246568       0.03138540
15
Properties=species:S:1:pos:R:3:mp2_forces:R:3:forces:R:3 R1=CN R2=CN R3=NH2 R4=NH2 lg=Cl nu=Cl rxn-id=1467 mp2_energy=-35185.493258940136 energy=-35185.420010466725 free_energy=-35185.49325208208 pbc="F F F"
C        0.57949695      -0.02822167      -0.02732327      -0.00900658       0.00361950      -0.01160589      -0.04467157      -0.00396545      -0.01088626
C        0.89741655       1.50060859      -0.03919513      -0.00482315      -0.00445938      -0.00007191      -0.02482481      -0.02250643       0.00055012
H        1.94523558       1.58220044      -0.33105418      -0.01236050      -0.00666480      -0.00030012      -0.02794834      -0.07789587       0.00871375
Cl      -1.21837707      -0.28230636      -0.25140304       0.00693179       0.01337296       0.01280608      -0.01413872       0.00708119       0.01240212
Cl       3.53902710       0.07197561       0.76836556       0.01313821       0.08048358       0.05727392       0.07101291       0.07611086       0.04107406
C        1.20861980      -0.68686504      -1.17337678      -0.04965759       0.00323998       0.02478007      -0.03961321      -0.01172602      -0.00194758
N        1.55418446      -1.20526325      -2.16926192      -0.00807282      -0.02282313      -0.02102330       0.01861006      -0.00164309       0.01227710
C        0.85059657      -0.69510094       1.25173056      -0.01373157      -0.02556974      -0.00147895      -0.00154802      -0.01111529      -0.01955552
N        0.74329746      -1.25968542       2.27893917       0.01573874      -0.01867292      -0.04119942       0.06232355      -0.00367742      -0.00729341
N        0.65156684       2.01973326       1.30387316       0.00935904      -0.00556908       0.00325380      -0.02103198      -0.01535992      -0.00829952
H        0.76496099       3.02869141       1.25026321       0.00523306      -0.00517535      -0.00789106      -0.01366960      -0.02145852      -0.01630035
H        1.41683674       1.68476801       1.89312372       0.01432374      -0.00879333      -0.00096629      -0.01963016      -0.01740182      -0.01270958
N        0.10256527       2.11125856      -1.07908928       0.00363310      -0.00490871      -0.00705839      -0.01080857       0.01662846      -0.00062012
H        0.43216457       3.05089799      -1.24527185       0.01336017      -0.01370022      -0.01822779       0.06371302      -0.01309892      -0.02547956
H       -0.87101888       2.15102695      -0.79557658       0.01593435       0.01562065       0.01170926       0.00222545       0.10002825       0.02807476
15
Properties=species:S:1:pos:R:3:mp2_forces:R:3:forces:R:3 R1=CN R2=CN R3=NH2 R4=NH2 lg=Cl nu=Cl rxn-id=1467 mp2_energy=-35185.493258940136 energy=-35185.39592714941 free_energy=-35185.49325208208 pbc="F F F"
C        0.59901926      -0.02132644      -0.02409434      -0.00900658       0.00361950      -0.01160589      -0.04440254      -0.00747438      -0.00867576
C        0.91164522       1.51356782      -0.03525115      -0.00482315      -0.00445938      -0.00007191      -0.04939954      -0.03067101      -0.00065383
H        1.95642944       1.62087300      -0.32919610      -0.01236050      -0.00666480      -0.00030012      -0.04272908      -0.12781909       0.00924075
Cl      -1.19946929      -0.28220354      -0.25520891       0.00693179       0.01337296       0.01280608      -0.01213576       0.00914989       0.01147114
Cl       3.51011301       0.03100393       0.73844472       0.01313821       0.08048358       0.05727392       0.10593550       0.06670407       0.05063549
C        1.22951330      -0.68312663      -1.16825699      -0.04965759       0.00323998       0.02478007      -0.05982202      -0.00858235      -0.00052262
N        1.54092157      -1.20909967      -2.17203595      -0.00807282      -0.02282313      -0.02102330       0.04339337       0.01095262       0.02460979
C        0.85421525      -0.69258519       1.25664423      -0.01373157      -0.02556974      -0.00147895      -0.00958382      -0.00417864      -0.02331861
N        0.71320898      -1.26273260       2.27720432       0.01573874      -0.01867292      -0.04119942       0.08782144       0.00667561      -0.00478526
N        0.65593991       2.02737347       1.30916079       0.00935904      -0.00556908       0.00325380      -0.02945805      -0.01691312      -0.00959014
H        0.75780108       3.03852572       1.26077014       0.00523306      -0.00517535      -0.00789106      -0.00979069      -0.02776120      -0.02576752
H        1.42068701       1.69823724       1.90240973       0.01432374      -0.00879333      -0.00096629      -0.02089410      -0.02273087      -0.02251018
N        0.10562442       2.10261533      -1.07653180       0.00363310      -0.00490871      -0.00705839      -0.01993794       0.02870987      -0.00505761
H        0.41004428       3.04759072      -1.25263322       0.01336017      -0.01370022      -0.01822779       0.07183585      -0.00168440      -0.01279392
H       -0.86912051       2.11500497      -0.79668213       0.01593435       0.01562065       0.01170926      -0.01083261       0.12562299       0.01771828
15
Properties=species:S:1:pos:R:3:mp2_forces:R:3:forces:R:3 R1=CN R2=CN R3=NH2 R4=NH2 lg=Cl nu=Cl rxn-id=1467 mp2_energy=-35185.493258940136 energy=-35185.35059215389 free_energy=-35185.49325208208 pbc="F F F"
C        0.61913749      -0.01441585      -0.02299293      -0.00900658       0.00361950      -0.01160589      -0.07910056      -0.01022317      -0.00598356
C        0.93263208       1.53048722      -0.03213723      -0.00482315      -0.00445938      -0.00007191      -0.08655667      -0.04309901      -0.00353973
H        1.97337396       1.67392772      -0.33184488      -0.01236050      -0.00666480      -0.00030012      -0.06898056      -0.20822284       0.01807941
Cl      -1.18211231      -0.28969517      -0.26051290       0.00693179       0.01337296       0.01280608       0.01583266       0.03391488       0.00360072
Cl       3.47047862      -0.01739029       0.70805962       0.01313821       0.08048358       0.05727392       0.16673159       0.05505523       0.06673835
C        1.25079525      -0.67973194      -1.16407434      -0.04965759       0.00323998       0.02478007      -0.07133700      -0.00351025       0.00228574
N        1.52891001      -1.20939982      -2.17634320      -0.00807282      -0.02282313      -0.02102330       0.06757132       0.01775468       0.03266692
C        0.84778275      -0.68973772       1.26043211      -0.01373157      -0.02556974      -0.00147895       0.01034614       0.01111892      -0.01550206
N        0.67347199      -1.25826199       2.27718891       0.01573874      -0.01867292      -0.04119942       0.10855276       0.01027389      -0.00263672
N        0.66904937       2.03847902       1.31454445       0.00935904      -0.00556908       0.00325380      -0.04825085      -0.02484082      -0.01288403
H        0.75895072       3.05127331       1.27018748       0.00523306      -0.00517535      -0.00789106      -0.00352353      -0.03308882      -0.03069587
H        1.43220229       1.71473832       1.91255649       0.01432374      -0.00879333      -0.00096629      -0.01950747      -0.02856891      -0.03741657
N        0.11315010       2.09288496      -1.07224702       0.00363310      -0.00490871      -0.00705839      -0.03422958       0.04117991      -0.01395072
H        0.37269998       3.05132860      -1.24245444       0.01336017      -0.01370022      -0.01822779       0.07125184       0.01273821      -0.00297852
H       -0.86394936       2.04923176      -0.80561879       0.01593435       0.01562065       0.01170926      -0.02880009       0.16951812       0.00221664
15
Properties=species:S:1:pos:R:3:mp2_forces:R:3:forces:R:3 R1=CN R2=CN R3=NH2 R4=NH2 lg=Cl nu=Cl rxn-id=1467 mp2_energy=-35185.493258940136 energy=-35185.26368290555 free_energy=-35185.49325208208 pbc="F F F"
C        0.65574302      -0.00976540      -0.01987744      -0.00900658       0.00361950      -0.01160589      -0.46803905      -0.06719003      -0.06654202
C        0.96652566       1.54811534      -0.02955164      -0.00482315      -0.00445938      -0.00007191      -0.16017660      -0.05157966      -0.00862004
H        1.99709881       1.75721107      -0.34237926      -0.01236050      -0.00666480      -0.00030012      -0.08666544      -0.31612795       0.04180306
Cl      -1.17334924      -0.30093446      -0.26153572       0.00693179       0.01337296       0.01280608       0.24090385       0.10501739       0.01446835
Cl       3.39808557      -0.03166567       0.67631232       0.01313821       0.08048358       0.05727392       0.33671952       0.01746383       0.10673038
C        1.26586086      -0.68266486      -1.16731257      -0.04965759       0.00323998       0.02478007      -0.04336493       0.01244798       0.04021092
N        1.50444132      -1.21857199      -2.18760854      -0.00807282      -0.02282313      -0.02102330       0.08371351       0.03039842       0.05425635
C        0.83205338      -0.69409670       1.26583822      -0.01373157      -0.02556974      -0.00147895       0.10860750       0.03363888      -0.01231812
N        0.63893572      -1.26364834       2.27936226       0.01573874      -0.01867292      -0.04119942       0.10386711       0.02178311      -0.02447035
N        0.68490556       2.04573774       1.31751439       0.00935904      -0.00556908       0.00325380      -0.07218349      -0.03629060      -0.00471298
H        0.75285261       3.05927311       1.27887500       0.00523306      -0.00517535      -0.00789106       0.01288634      -0.03104793      -0.02844130
H        1.43856986       1.72845270       1.92994843       0.01432374      -0.00879333      -0.00096629      -0.01128249      -0.02783086      -0.06135925
N        0.12697733       2.07587172      -1.06482559       0.00363310      -0.00490871      -0.00705839      -0.04718495       0.06649981      -0.02854450
H        0.35560381       3.04035057      -1.23776457       0.01336017      -0.01370022      -0.01822779       0.04711988       0.03463403      -0.00719604
H       -0.84773136       1.99005329      -0.80225194       0.01593435       0.01562065       0.01170926      -0.04492076       0.20818357      -0.01526444
15
Properties=species:S:1:pos:R:3:mp2_forces:R:3:forces:R:3 R1=CN R2=CN R3=NH2 R4=NH2 lg=Cl nu=Cl rxn-id=1467 mp2_energy=-35185.493258940136 energy=-35185.064924626786 free_energy=-35185.49325208208 pbc="F F F"
C        0.74022929       0.00251210      -0.00701469      -0.00900658       0.00361950      -0.01160589      -1.62268002      -0.17290454      -0.28187911
C        0.99462017       1.55727744      -0.02681860      -0.00482315      -0.00445938      -0.00007191      -0.16008293      -0.07355009      -0.00707571
H        2.01126976       1.81116134      -0.34768694      -0.01236050      -0.00666480      -0.00030012      -0.04544713      -0.29297095       0.03993189
Cl      -1.21436636      -0.31768403      -0.26479054       0.00693179       0.01337296       0.01280608       0.87416763       0.21911015       0.09400168
Cl       3.34080613      -0.03670761       0.65610148       0.01313821       0.08048358       0.05727392       0.48892952      -0.00909720       0.13933346
C        1.27124560      -0.68572785      -1.17464486      -0.04965759       0.00323998       0.02478007       0.10766619       0.03243784       0.08795357
N        1.49051887      -1.22559771      -2.19789195      -0.00807282      -0.02282313      -0.02102330       0.06960034       0.02730484       0.05412057
C        0.81577944      -0.69993950       1.26832063      -0.01373157      -0.02556974      -0.00147895       0.28658414       0.05231452       0.02323152
N        0.61864928      -1.26785919       2.28214671       0.01573874      -0.01867292      -0.04119942       0.07201206       0.01799846      -0.03397243
N        0.69635446       2.05205225       1.31838396       0.00935904      -0.00556908       0.00325380      -0.06240431      -0.04004301       0.00488455
H        0.74776143       3.06463744       1.28475074       0.00523306      -0.00517535      -0.00789106       0.02040718      -0.02340701      -0.03012817
H        1.44050683       1.73604284       1.94008851       0.01432374      -0.00879333      -0.00096629      -0.00071799      -0.01978841      -0.05458192
N        0.13448487       2.06518132      -1.05999898       0.00363310      -0.00490871      -0.00705839      -0.02495553       0.06318031      -0.01184000
H        0.34586176       3.03323428      -1.23930306       0.01336017      -0.01370022      -0.01822779       0.03035863       0.02217812       0.00008731
H       -0.83714863       1.95513501      -0.79689907       0.01593435       0.01562065       0.01170926      -0.03343778       0.19723696      -0.02406723
15
Properties=species:S:1:pos:R:3:mp2_forces:R:3:forces:R:3 R1=CN R2=CN R3=NH2 R4=NH2 lg=Cl nu=Cl rxn-id=1467 mp2_energy=-35185.493258940136 energy=-35184.853844061356 free_energy=-35185.49325208208 pbc="F F F"
C        0.82188645       0.01078659       0.00693157      -0.00900658       0.00361950      -0.01160589      -1.62052975      -0.11747058      -0.29951241
C        1.00248224       1.56121715      -0.02634529      -0.00482315      -0.00445938      -0.00007191      -0.06856358      -0.06540064       0.00377215
H        2.01362822       1.82557861      -0.34948660      -0.01236050      -0.00666480      -0.00030012      -0.01450123      -0.20296994       0.03479646
Cl      -1.25839803      -0.32857958      -0.26967446       0.00693179       0.01337296       0.01280608       0.69098864       0.16315894       0.08050223
Cl       3.31624244      -0.03689388       0.64854907       0.01313821       0.08048358       0.05727392       0.43499190      -0.01326643       0.12128847
C        1.26593974      -0.68693907      -1.17853899      -0.04965759       0.00323998       0.02478007       0.18518954       0.02023111       0.07801007
N        1.48725281      -1.22724928      -2.20062233      -0.00807282      -0.02282313      -0.02102330       0.05416428       0.00784005       0.02351554
C        0.80122775      -0.70227374       1.26710959      -0.01373157      -0.02556974      -0.00147895       0.32718530       0.03426498       0.05149862
N        0.61504754      -1.26841066       2.28344563       0.01573874      -0.01867292      -0.04119942       0.04348513       0.00545590      -0.01727896
N        0.69968543       2.05403038       1.31803327       0.00935904      -0.00556908       0.00325380      -0.03866074      -0.02233675       0.00598861
H        0.74616720       3.06574005       1.28614743       0.00523306      -0.00517535      -0.00789106       0.01235585      -0.01448779      -0.02366440
H        1.44064968       1.73760708       1.94274291       0.01432374      -0.00879333      -0.00096629       0.00223825      -0.01099276      -0.03969861
N        0.13586759       2.06188621      -1.05888996       0.00363310      -0.00490871      -0.00705839      -0.01087778       0.05461068      -0.00144641
H        0.34391640       3.03201902      -1.23896918       0.01336017      -0.01370022      -0.01822779       0.02128810       0.01436525       0.00020341
H       -0.83502256       1.94519923      -0.79568932       0.01593435       0.01562065       0.01170926      -0.01875391       0.14699798      -0.01797478
15
Properties=species:S:1:pos:R:3:mp2_forces:R:3:forces:R:3 R1=CN R2=CN R3=NH2 R4=NH2 lg=Cl nu=Cl rxn-id=1467 mp2_energy=-35185.493258940136 energy=-35184.693479171285 free_energy=-35185.49325208208 pbc="F F F"
C        0.90906589       0.01699965       0.02272645      -0.00900658       0.00361950      -0.01160589      -0.99712054      -0.04392489      -0.19673070
C        1.00623629       1.56477239      -0.02637638      -0.00482315      -0.00445938      -0.00007191      -0.01255403      -0.03118081       0.00582275
H        2.01437423       1.83622678      -0.35111052      -0.01236050      -0.00666480      -0.00030012      -0.00092371      -0.11024707       0.02497108
Cl      -1.29589950      -0.33731153      -0.27415333       0.00693179       0.01337296       0.01280608       0.31512178       0.07702337       0.03838098
Cl       3.29301792      -0.03672500       0.64151116       0.01313821       0.08048358       0.05727392       0.27075877      -0.00924621       0.07306021
C        1.25594412      -0.68769137      -1.18214914      -0.04965759       0.00323998       0.02478007       0.14768443       0.00407677       0.04595641
N        1.48464558      -1.22807733      -2.20204899      -0.00807282      -0.02282313      -0.02102330       0.03470495      -0.00651950       0.00056361
C        0.78369544      -0.70403137       1.26440959      -0.01373157      -0.02556974      -0.00147895       0.23069073       0.00984520       0.04981706
N        0.61269830      -1.26842227       2.28399588       0.01573874      -0.01867292      -0.04119942       0.02260030      -0.00194645      -0.00388621
N        0.70188586       2.05521352       1.31757667       0.00935904      -0.00556908       0.00325380      -0.01820845      -0.00772662       0.00256773
H        0.74479120       3.06643361       1.28734428       0.00523306      -0.00517535      -0.00789106      -0.00003719      -0.00852707      -0.01395472
H        1.44060535       1.73880854       1.94476718       0.01432374      -0.00879333      -0.00096629       0.00190479      -0.00163054      -0.02289963
N        0.13651429       2.05899249      -1.05839329       0.00363310      -0.00490871      -0.00705839      -0.00277131       0.03737379       0.00452853
H        0.34253768       3.03113981      -1.23880681       0.01336017      -0.01370022      -0.01822779       0.01309932       0.00706578      -0.00115193
H       -0.83353973       1.93739020      -0.79454940       0.01593435       0.01562065       0.01170926      -0.00494985       0.08556424      -0.00704516
15
Properties=species:S:1:pos:R:3:mp2_forces:R:3:forces:R:3 R1=CN R2=CN R3=NH2 R4=NH2 lg=Cl nu=Cl rxn-id=1467 mp2_energy=-35185.493258940136 energy=-35184.61837708495 free_energy=-35185.49325208208 pbc="F F F"
C        1.00522211       0.02118419       0.04103816      -0.00900658       0.00361950      -0.01160589      -0.16821333      -0.00516916      -0.04070727
C        1.00764561       1.56767189      -0.02660751      -0.00482315      -0.00445938      -0.00007191      -0.00061765      -0.00575549       0.00333594
H        2.01433715       1.84644889      -0.35312559      -0.01236050      -0.00666480      -0.00030012      -0.00127659      -0.02114261       0.00763109
Cl      -1.32695278      -0.34462721      -0.27802713       0.00693179       0.01337296       0.01280608       0.04288467       0.01340344       0.00556549
Cl       3.26730781      -0.03645549       0.63363538       0.01313821       0.08048358       0.05727392       0.05619359      -0.00333388       0.00813581
C        1.24160527      -0.68750656      -1.18545749      -0.04965759       0.00323998       0.02478007       0.02287212       0.00352629       0.01577001
N        1.48172591      -1.22829300      -2.20251993      -0.00807282      -0.02282313      -0.02102330       0.00868763      -0.01023373      -0.00567111
C        0.76157947      -0.70500125       1.25981175      -0.01373157      -0.02556974      -0.00147895       0.03857213      -0.00135585       0.01188462
N        0.61065294      -1.26787402       2.28371690       0.01573874      -0.01867292      -0.04119942       0.00624084       0.00040608      -0.00474538
N        0.70379672       2.05584990       1.31704995       0.00935904      -0.00556908       0.00325380      -0.00213960      -0.00216592      -0.00262964
H        0.74334712       3.06700275       1.28854331       0.00523306      -0.00517535      -0.00789106      -0.01432546      -0.00445654      -0.00357781