17
Properties=species:S:1:pos:R:3:mp2_forces:R:3:forces:R:3 R1=NH2 R2=CN R3=CH3 R4=NO2 lg=Cl nu=F rxn-id=2641 mp2_energy=-28002.387738426252 energy=-28002.387738426252 free_energy=-28002.387738426252 pbc="F F F"
C        0.40749258      -0.10373813      -0.04522433      -0.00843827      -0.03736395       0.08287885      -0.00843827      -0.03736395       0.08287885
C        0.85084973       1.38271630      -0.02793277       0.00357446      -0.01424274      -0.00326051       0.00357446      -0.01424274      -0.00326051
H        1.91180186       1.32250772      -0.28417052      -0.00145314      -0.00756166       0.00387186      -0.00145314      -0.00756166       0.00387186
Cl      -1.36967444      -0.25641579      -0.47291713       0.04748297       0.03127742       0.02042898       0.04748297       0.03127742       0.02042898
F        3.04933298       0.04628434       0.52654540       0.00663563      -0.04280169      -0.04611749       0.00663563      -0.04280169      -0.04611749
N        1.18663990      -0.82687401      -0.99199962       0.00477174       0.00306392      -0.08826250       0.00477174       0.00306392      -0.08826250
H        0.90919881      -1.80243278      -0.96887805       0.02471636      -0.02686888       0.05269119       0.02471636      -0.02686888       0.05269119
H        2.14902922      -0.70312489      -0.57256368       0.00728644       0.07739783      -0.01097143       0.00728644       0.07739783      -0.01097143
C        0.48101874      -0.66869922       1.32044466      -0.01666156       0.01787053       0.02447841      -0.01666156       0.01787053       0.02447841
N        0.47458092      -1.20042532       2.36890864      -0.02096235      -0.00056810       0.00623698      -0.02096235      -0.00056810       0.00623698
C        0.69090443       2.07470313       1.30621023      -0.01821475      -0.01632896      -0.02054906      -0.01821475      -0.01632896      -0.02054906
H       -0.31139422       1.95520668       1.72093229       0.00195991       0.00028048       0.01346536       0.00195991       0.00028048       0.01346536
H        1.43983645       1.63921459       1.96896020      -0.03503381      -0.01069539      -0.02100664      -0.03503381      -0.01069539      -0.02100664
H        0.89291988       3.14272314       1.19769010      -0.00186173      -0.02419514      -0.00038249      -0.00186173      -0.02419514      -0.00038249
N        0.13754494       2.12162189      -1.11351792       0.03037184       0.03316032      -0.01992634       0.03037184       0.03316032      -0.01992634
O       -0.80187458       2.85573952      -0.79897591      -0.02422804       0.02353485      -0.01128612      -0.02422804       0.02353485      -0.01128612
O        0.53525220       1.95629156      -2.26513808       0.00005429      -0.00595886       0.01771094       0.00005429      -0.00595886       0.01771094
17
Properties=species:S:1:pos:R:3:mp2_forces:R:3:forces:R:3 R1=NH2 R2=CN R3=CH3 R4=NO2 lg=Cl nu=F rxn-id=2641 mp2_energy=-28002.387738426252 energy=-28002.41437341721 free_energy=-28002.387738426252 pbc="F F F"
C        0.41069754      -0.10342914      -0.03345501      -0.00843827      -0.03736395       0.08287885      -0.00389541      -0.00091556       0.00187861
C        0.85641854       1.38097947      -0.01735894       0.00357446      -0.01424274      -0.00326051      -0.00073726      -0.00182667       0.00353507
H        1.92745603       1.31874055      -0.24630970      -0.00145314      -0.00756166       0.00387186       0.00163780      -0.00743878       0.00987919
Cl      -1.38640999      -0.22438633      -0.39942201       0.04748297       0.03127742       0.02042898      -0.00560052       0.00429591       0.00350909
F        3.09234770       0.01590165       0.41333947       0.00663563      -0.04280169      -0.04611749       0.01894528       0.00667431      -0.03723102
N        1.15375563      -0.82663786      -1.00623213       0.00477174       0.00306392      -0.08826250      -0.00559075      -0.00259050       0.00328774
H        0.91612969      -1.81143522      -0.92737701       0.02471636      -0.02686888       0.05269119       0.00164365      -0.00329471       0.01110365
H        2.13857568      -0.66794872      -0.63980389       0.00728644       0.07739783      -0.01097143      -0.00148464       0.00585498      -0.00724236
C        0.51137479      -0.67294700       1.33121190      -0.01666156       0.01787053       0.02447841      -0.00442447      -0.00080597       0.00184885
N        0.50871489      -1.19786224       2.38357630      -0.02096235      -0.00056810       0.00623698       0.00381803       0.00002668       0.00244837
C        0.64870514       2.07039248       1.31214924      -0.01821475      -0.01632896      -0.02054906      -0.00629834      -0.00048092       0.00213373
H       -0.36828893       1.95397183       1.68790680       0.00195991       0.00028048       0.01346536      -0.00880764       0.00282453      -0.00350370
H        1.36244559       1.63126088       2.01157388      -0.03503381      -0.01069539      -0.02100664      -0.01234326      -0.00081495       0.00855424
H        0.86143411       3.13741392       1.21935275      -0.00186173      -0.02419514      -0.00038249      -0.00230619      -0.00136350       0.00223579
N        0.17225295       2.12011441      -1.12258224       0.03037184       0.03316032      -0.01992634       0.00674315      -0.00066269       0.00018886
O       -0.75568508       2.87953360      -0.83354145      -0.02422804       0.02353485      -0.01128612       0.00510768      -0.00053077      -0.00479285
O        0.58353511       1.93163643      -2.26465444       0.00005429      -0.00595886       0.01771094       0.01359288       0.00104862       0.00216673
17
Properties=species:S:1:pos:R:3:mp2_forces:R:3:forces:R:3 R1=NH2 R2=CN R3=CH3 R4=NO2 lg=Cl nu=F rxn-id=2641 mp2_energy=-28002.387738426252 energy=-28002.40779391398 free_energy=-28002.387738426252 pbc="F F F"
C        0.41789745      -0.10240582      -0.03904632      -0.00843827      -0.03736395       0.08287885      -0.00611448      -0.00114426       0.00097734
C        0.85761473       1.38409713      -0.02592078       0.00357446      -0.01424274      -0.00326051      -0.00260080      -0.00186278       0.00242630
H        1.92338701       1.33320970      -0.27075978      -0.00145314      -0.00756166       0.00387186      -0.00046040      -0.00754540       0.00832999
Cl      -1.37444036      -0.23227484      -0.41857499       0.04748297       0.03127742       0.02042898      -0.00783007       0.00380645       0.00158052
F        3.05691206       0.00913099       0.48582148       0.00663563      -0.04280169      -0.04611749       0.02328982       0.00493200      -0.04026452
N        1.17025895      -0.82328397      -1.00876670       0.00477174       0.00306392      -0.08826250      -0.00590283      -0.00365457       0.00495033
H        0.91911424      -1.80546410      -0.94636580       0.02471636      -0.02686888       0.05269119       0.00589049      -0.00626050       0.01821180
H        2.14558537      -0.68038711      -0.61842446       0.00728644       0.07739783      -0.01097143      -0.00071388       0.01101682      -0.00435815
C        0.51137134      -0.66990099       1.32701112      -0.01666156       0.01787053       0.02447841      -0.00785739      -0.00078674       0.00122727
N        0.48928971      -1.19465818       2.37911409      -0.02096235      -0.00056810       0.00623698       0.00418613      -0.00046405       0.00175315
C        0.66586337       2.06978762       1.30765648      -0.01821475      -0.01632896      -0.02054906      -0.00613012      -0.00149434       0.00189534
H       -0.34526692       1.94839046       1.69728045       0.00195991       0.00028048       0.01346536      -0.00826781       0.00288778      -0.00212359
H        1.39270176       1.62953400       1.99217808      -0.03503381      -0.01069539      -0.02100664      -0.01181527      -0.00398651       0.00684585
H        0.87250340       3.13789161       1.21431393      -0.00186173      -0.02419514      -0.00038249      -0.00035439      -0.00254007       0.00309660
N        0.15419218       2.12154881      -1.12084915       0.03037184       0.03316032      -0.01992634       0.00592927       0.00111861      -0.00053465
O       -0.76973714       2.88002892      -0.81738312      -0.02422804       0.02353485      -0.01128612       0.00476767       0.00179041      -0.00548005
O        0.54621224       1.93005450      -2.26891101       0.00005429      -0.00595886       0.01771094       0.01398406       0.00418715       0.00146647
17
Properties=species:S:1:pos:R:3:mp2_forces:R:3:forces:R:3 R1=NH2 R2=CN R3=CH3 R4=NO2 lg=Cl nu=F rxn-id=2641 mp2_energy=-28002.387738426252 energy=-28002.400298143544 free_energy=-28002.387738426252 pbc="F F F"
C        0.43031955      -0.09794654      -0.03938689      -0.00843827      -0.03736395       0.08287885      -0.01234686      -0.00345366      -0.00044262
C        0.86373069       1.38943307      -0.02972705       0.00357446      -0.01424274      -0.00326051      -0.00669808      -0.00449609       0.00191562
H        1.92563694       1.34965672      -0.28480264      -0.00145314      -0.00756166       0.00387186      -0.00393248      -0.01330860       0.01012531
Cl      -1.36105047      -0.23001245      -0.41475203       0.04748297       0.03127742       0.02042898      -0.01364888      -0.00173040      -0.00105711
F        3.01984791      -0.01003979       0.55094237       0.00663563      -0.04280169      -0.04611749       0.02862923       0.00789596      -0.04666509
N        1.17995003      -0.81554575      -1.01637042       0.00477174       0.00306392      -0.08826250      -0.00899879      -0.00445898       0.00524574
H        0.90275485      -1.79134004      -0.98055201       0.02471636      -0.02686888       0.05269119       0.01649642      -0.01314783       0.03018638
H        2.14755854      -0.70321056      -0.60557503       0.00728644       0.07739783      -0.01097143      -0.00176975       0.02621883      -0.00695932
C        0.53063625      -0.66811164       1.32504477      -0.01666156       0.01787053       0.02447841      -0.01495888      -0.00200767       0.00044402
N        0.49292631      -1.19776107       2.37414880      -0.02096235      -0.00056810       0.00623698       0.00346288       0.00093632       0.00291741
C        0.67258878       2.07328985       1.30438594      -0.01821475      -0.01632896      -0.02054906      -0.00565853      -0.00335189       0.00182696
H       -0.33667323       1.94283321       1.69593664       0.00195991       0.00028048       0.01346536      -0.00696312       0.00451864       0.00140009
H        1.40531750       1.63583580       1.98385727      -0.03503381      -0.01069539      -0.02100664      -0.01029838      -0.00713361       0.00504691
H        0.86915210       3.14348903       1.21221996      -0.00186173      -0.02419514      -0.00038249       0.00369054      -0.00508985       0.00129060
N        0.14519969       2.11930921      -1.12180129       0.03037184       0.03316032      -0.01992634       0.00691123       0.00287124      -0.00093703
O       -0.77814084       2.87599223      -0.81264131      -0.02422804       0.02353485      -0.01128612       0.00803441       0.00613729      -0.00539535
O        0.52370482       1.91942745      -2.27255358       0.00005429      -0.00595886       0.01771094       0.01804903       0.00960031       0.00105748
17
Properties=species:S:1:pos:R:3:mp2_forces:R:3:forces:R:3 R1=NH2 R2=CN R3=CH3 R4=NO2 lg=Cl nu=F rxn-id=2641 mp2_energy=-28002.387738426252 energy=-28002.376354628763 free_energy=-28002.387738426252 pbc="F F F"
C        0.45616340      -0.09338401      -0.03727427      -0.00843827      -0.03736395       0.08287885      -0.02809903      -0.00449825      -0.00534191
C        0.87428591       1.39718452      -0.03267585       0.00357446      -0.01424274      -0.00326051      -0.01249114      -0.00945865      -0.00036570
H        1.92906133       1.37679120      -0.30718341      -0.00145314      -0.00756166       0.00387186      -0.00760225      -0.02958670       0.01385119
Cl      -1.33142789      -0.23928102      -0.41192156       0.04748297       0.03127742       0.02042898      -0.02799197       0.00246810      -0.00766035
F        2.95344610      -0.03094077       0.66387583       0.00663563      -0.04280169      -0.04611749       0.04165628       0.00615721      -0.06358585
N        1.20260778      -0.80007255      -1.02960252       0.00477174       0.00306392      -0.08826250      -0.01760435      -0.00437947       0.00605680
H        0.86685056      -1.75585214      -1.06728279       0.02471636      -0.02686888       0.05269119       0.04242016      -0.03491724       0.07021344
H        2.15266716      -0.75993780      -0.58635351       0.00728644       0.07739783      -0.01097143      -0.00418994       0.07386014      -0.00608593
C        0.56382564      -0.66504794       1.32612198      -0.01666156       0.01787053       0.02447841      -0.03042973      -0.00349403      -0.00486827
N        0.48163913      -1.19616542       2.37209522      -0.02096235      -0.00056810       0.00623698       0.00897842      -0.00084845       0.00049573
C        0.68679019       2.08243481       1.30043479      -0.01821475      -0.01632896      -0.02054906      -0.00512706      -0.00932052       0.00106743
H       -0.31696722       1.93607181       1.70014675       0.00195991       0.00028048       0.01346536      -0.00631311       0.00485257       0.00416553
H        1.43336659       1.65481600       1.96985667      -0.03503381      -0.01069539      -0.02100664      -0.00886844      -0.01646983       0.00144354
H        0.86252901       3.15626467       1.20374415      -0.00186173      -0.02419514      -0.00038249       0.01170091      -0.01233900       0.00108741
N        0.12870123       2.11128683      -1.11984211       0.03037184       0.03316032      -0.01992634       0.00887065       0.00700353      -0.00296945
O       -0.79271816       2.86607568      -0.80099524      -0.02422804       0.02353485      -0.01128612       0.01121455       0.01127182      -0.00618730
O        0.48263866       1.89505487      -2.27477059       0.00005429      -0.00595886       0.01771094       0.02387605       0.01969874      -0.00131631
17
Properties=species:S:1:pos:R:3:mp2_forces:R:3:forces:R:3 R1=NH2 R2=CN R3=CH3 R4=NO2 lg=Cl nu=F rxn-id=2641 mp2_energy=-28002.387738426252 energy=-28002.325209749455 free_energy=-28002.387738426252 pbc="F F F"
C        0.49945436      -0.08737377      -0.03068536      -0.00843827      -0.03736395       0.08287885      -0.06722352      -0.00500373      -0.01469232
C        0.89356710       1.41056309      -0.03003654       0.00357446      -0.01424274      -0.00326051      -0.02705439      -0.02177619      -0.00570324
H        1.94175019       1.42138737      -0.32207441      -0.00145314      -0.00756166       0.00387186      -0.01463838      -0.08700429       0.02321419
Cl      -1.28760145      -0.24169683      -0.39887926       0.04748297       0.03127742       0.02042898      -0.05527365       0.00654643      -0.01428384
F        2.89382129      -0.02860019       0.74921899       0.00663563      -0.04280169      -0.04611749       0.06639354      -0.02002861      -0.06437036
N        1.22420336      -0.79945506      -1.04139038       0.00477174       0.00306392      -0.08826250      -0.03610095       0.01437252       0.00300921
H        0.80362140      -1.71399018      -1.15785330       0.02471636      -0.02686888       0.05269119       0.08236470      -0.06763007       0.10132568
H        2.15784625      -0.86524101      -0.59352079       0.00728644       0.07739783      -0.01097143      -0.01337044       0.17873479       0.02926510
C        0.60972175      -0.66049106       1.33133063      -0.01666156       0.01787053       0.02447841      -0.03980715      -0.00312189      -0.01539075
N        0.46148941      -1.19609156       2.36847219      -0.02096235      -0.00056810       0.00623698       0.03781007       0.00027578      -0.00247237
C        0.69296156       2.09590008       1.30093041      -0.01821475      -0.01632896      -0.02054906      -0.00514180      -0.01821906      -0.00393022
H       -0.31018612       1.92975366       1.69340986       0.00195991       0.00028048       0.01346536      -0.00383915       0.00653999       0.01301635
H        1.44451735       1.68192569       1.97221396      -0.03503381      -0.01069539      -0.02100664      -0.00411582      -0.03193072      -0.01305107
H        0.84488162       3.17425090       1.20386473      -0.00186173      -0.02419514      -0.00038249       0.02001786      -0.02307319      -0.00736223
N        0.11782221       2.10081996      -1.11446259       0.03037184       0.03316032      -0.01992634       0.01344390       0.01456650      -0.00918582
O       -0.80568271       2.85088491      -0.79168552      -0.02422804       0.02353485      -0.01128612       0.01751355       0.02192795      -0.01059970
O        0.45127184       1.86275272      -2.27047912       0.00005429      -0.00595886       0.01771094       0.02902164       0.03482379      -0.00878862
17
Properties=species:S:1:pos:R:3:mp2_forces:R:3:forces:R:3 R1=NH2 R2=CN R3=CH3 R4=NO2 lg=Cl nu=F rxn-id=2641 mp2_energy=-28002.387738426252 energy=-28002.24589352592 free_energy=-28002.387738426252 pbc="F F F"
C        0.54552163      -0.08399443      -0.02094085      -0.00843827      -0.03736395       0.08287885      -0.15210697      -0.00544566      -0.04390678
C        0.91177148       1.42544107      -0.02667267       0.00357446      -0.01424274      -0.00326051      -0.04934796      -0.03717224      -0.01267705
H        1.95172065       1.48044116      -0.33816794      -0.00145314      -0.00756166       0.00387186      -0.01906986      -0.17721097       0.04033212
Cl      -1.24921036      -0.24610371      -0.39038636       0.04748297       0.03127742       0.02042898      -0.03540390       0.02293963      -0.01538082
F        2.84742239      -0.01264494       0.79210172       0.00663563      -0.04280169      -0.04611749       0.13219241      -0.04221223      -0.01102992
N        1.24931850      -0.81076898      -1.04278731       0.00477174       0.00306392      -0.08826250      -0.08040282       0.03411616      -0.01489933
H        0.74795301      -1.66970881      -1.22276421       0.02471636      -0.02686888       0.05269119       0.10647332      -0.12595096       0.08636565
H        2.16778373      -0.98773718      -0.61408763       0.00728644       0.07739783      -0.01097143      -0.04109614       0.29540208       0.09790813
C        0.63613360      -0.65836909       1.34172563      -0.01666156       0.01787053       0.02447841      -0.00175675       0.01291788      -0.03398919
N        0.43578377      -1.19644662       2.36991841      -0.02096235      -0.00056810       0.00623698       0.06610698       0.01069804      -0.02196039
C        0.69638369       2.10754868       1.30341127      -0.01821475      -0.01632896      -0.02054906      -0.00779319      -0.02610553      -0.00906527
H       -0.30783261       1.92546525       1.68440037       0.00195991       0.00028048       0.01346536      -0.00378919       0.01200784       0.02348557
H        1.44718294       1.70202791       1.98023384      -0.03503381      -0.01069539      -0.02100664       0.00320283      -0.04472882      -0.03152047
H        0.83233710       3.18904363       1.20919708      -0.00186173      -0.02419514      -0.00038249       0.02246234      -0.03025981      -0.01513077
N        0.10820606       2.09232426      -1.10810500       0.03037184       0.03316032      -0.01992634       0.01892547       0.02959106      -0.01406465
O       -0.81802347       2.83742450      -0.78417739      -0.02422804       0.02353485      -0.01128612       0.01568507       0.02893370      -0.01113137
O        0.43100730       1.84135602      -2.26452546       0.00005429      -0.00595886       0.01771094       0.02571835       0.04247985      -0.01333547
17
Properties=species:S:1:pos:R:3:mp2_forces:R:3:forces:R:3 R1=NH2 R2=CN R3=CH3 R4=NO2 lg=Cl nu=F rxn-id=2641 mp2_energy=-28002.387738426252 energy=-28002.040051541404 free_energy=-28002.387738426252 pbc="F F F"
C        0.63437415      -0.08082583       0.00443258      -0.00843827      -0.03736395       0.08287885      -0.79001155      -0.05278333      -0.23460695
C        0.94022261       1.44718400      -0.01969440       0.00357446      -0.01424274      -0.00326051      -0.08162004      -0.06155369      -0.02056577
H        1.96245507       1.58432599      -0.36251627      -0.00145314      -0.00756166       0.00387186      -0.01289424      -0.26912043       0.06587004
Cl      -1.22831524      -0.26003567      -0.38207087       0.04748297       0.03127742       0.02042898       0.32496824       0.09289481       0.04077719
F        2.76970790       0.01257482       0.80038842       0.00663563      -0.04280169      -0.04611749       0.39333856      -0.04456132       0.15838465
N        1.29669054      -0.83119742      -1.03384365       0.00477174       0.00306392      -0.08826250      -0.16216212       0.05240845      -0.05324449
H        0.68632239      -1.59730505      -1.27181849       0.02471636      -0.02686888       0.05269119       0.14278752      -0.21516332      -0.02078915
H        2.19267357      -1.16036442      -0.67181743       0.00728644       0.07739783      -0.01097143      -0.10323485       0.36595840       0.22767521
C        0.63677674      -0.66537874       1.36147227      -0.01666156       0.01787053       0.02447841       0.16397479       0.05705631      -0.03001496
N        0.39632850      -1.20282861       2.38237063      -0.02096235      -0.00056810       0.00623698       0.07594478       0.02748660      -0.05876926
C        0.70126563       2.12250934       1.30859228      -0.01821475      -0.01632896      -0.02054906      -0.01199253      -0.03047506      -0.01196961
H       -0.30512342       1.91874273       1.67116673       0.00195991       0.00028048       0.01346536      -0.00735906       0.02572786       0.03468768
H        1.44586256       1.72707934       1.99772242      -0.03503381      -0.01069539      -0.02100664       0.01267343      -0.05428830      -0.05069394
H        0.82014591       3.20639533       1.21802814      -0.00186173      -0.02419514      -0.00038249       0.01585831      -0.02711255      -0.01672713
N        0.09654894       2.07559254      -1.09986891       0.03037184       0.03316032      -0.01992634       0.03550056       0.07029182      -0.01166878
O       -0.82756122       2.82119134      -0.77727592      -0.02422804       0.02353485      -0.01128612      -0.00355494       0.02674859      -0.00591886
O        0.41508478       1.81763904      -2.25689399       0.00005429      -0.00595886       0.01771094       0.00778315       0.03648515      -0.01242585
17
Properties=species:S:1:pos:R:3:mp2_forces:R:3:forces:R:3 R1=NH2 R2=CN R3=CH3 R4=NO2 lg=Cl nu=F rxn-id=2641 mp2_energy=-28002.387738426252 energy=-28001.763578752816 free_energy=-28002.387738426252 pbc="F F F"
C        0.76398405      -0.07218207       0.04285950      -0.00843827      -0.03736395       0.08287885      -0.89358992      -0.06242647      -0.27519973
C        0.95358025       1.45727243      -0.01635316       0.00357446      -0.01424274      -0.00326051      -0.00947463      -0.02376638      -0.00234795
H        1.96453148       1.62842163      -0.37333361      -0.00145314      -0.00756166       0.00387186       0.01140834      -0.13119797       0.03759104
Cl      -1.28150030      -0.27529426      -0.38886199       0.04748297       0.03127742       0.02042898       0.36942012       0.07778451       0.06261678
F        2.70520585       0.02021525       0.77442272       0.00663563      -0.04280169      -0.04611749       0.26033745      -0.01807833       0.12209426
N        1.32326327      -0.83977558      -1.02520129       0.00477174       0.00306392      -0.08826250      -0.05670805       0.01436612      -0.02062228
H        0.66310660      -1.56217943      -1.26809446       0.02471636      -0.02686888       0.05269119       0.08975582      -0.12999610      -0.05070352
H        2.20964998      -1.22033770      -0.70928777       0.00728644       0.07739783      -0.01097143      -0.03214115       0.17935565       0.13891614
C        0.60971779      -0.67482497       1.36657101      -0.01666156       0.01787053       0.02447841       0.19806784       0.03662141       0.03099140
N        0.38351904      -1.20726231       2.39180892      -0.02096235      -0.00056810       0.00623698       0.02934901       0.00688892      -0.01851693
C        0.70329607       2.12747293       1.31055761      -0.01821475      -0.01632896      -0.02054906       0.00036217      -0.00924832      -0.00320164
H       -0.30379425       1.91454199       1.66562364       0.00195991       0.00028048       0.01346536      -0.00361737       0.01652746       0.01569439
H        1.44388600       1.73584264       2.00597266      -0.03503381      -0.01069539      -0.02100664       0.00745763      -0.02752822      -0.02582195
H        0.81766245       3.21079275       1.22071396      -0.00186173      -0.02419514      -0.00038249       0.00754533      -0.00690030      -0.00721193
N        0.09068953       2.06409384      -1.09793472       0.03037184       0.03316032      -0.01992634       0.02758183       0.04478275       0.00305762
O       -0.82701017       2.81683001      -0.77621743      -0.02422804       0.02353485      -0.01128612      -0.00525304       0.01250404      -0.00064150
O        0.41367175       1.81167160      -2.25487208       0.00005429      -0.00595886       0.01771094      -0.00050139       0.02031125      -0.00669420
17
Properties=species:S:1:pos:R:3:mp2_forces:R:3:forces:R:3 R1=NH2 R2=CN R3=CH3 R4=NO2 lg=Cl nu=F rxn-id=2641 mp2_energy=-28002.387738426252 energy=-28001.720003631046 free_energy=-28002.387738426252 pbc="F F F"
C        0.91689417      -0.06153325       0.08998108      -0.00843827      -0.03736395       0.08287885       0.49640831       0.02587021       0.16172484
C        0.95515882       1.46129972      -0.01596178       0.00357446      -0.01424274      -0.00326051       0.00501649       0.00501468       0.00101591
H        1.96246063       1.65089688      -0.37978827      -0.00145314      -0.00756166       0.00387186      -0.00892593       0.05675938      -0.01979414
Cl      -1.34446910      -0.28859592      -0.39969201       0.04748297       0.03127742       0.02042898      -0.13856426      -0.02984088      -0.02447312
F        2.66072285       0.02338988       0.75376013       0.00663563      -0.04280169      -0.04611749      -0.25537958      -0.00720721      -0.10063503
N        1.33298090      -0.84226563      -1.02161515       0.00477174       0.00306392      -0.08826250       0.02431218       0.00719131       0.00756405
H        0.64779567      -1.54012814      -1.25927228       0.02471636      -0.02686888       0.05269119      -0.03019685       0.04979795       0.03157531
H        2.21528638      -1.25094100      -0.73330534       0.00728644       0.07739783      -0.01097143       0.00878313      -0.07461520      -0.06284129
C        0.57576616      -0.68104342       1.36123631      -0.01666156       0.01787053       0.02447841      -0.07775431      -0.01372681      -0.01456965
N        0.37819296      -1.20849615       2.39498666      -0.02096235      -0.00056810       0.00623698      -0.01183046      -0.00232522       0.00664762
C        0.70326446       2.12903317       1.31109987      -0.01821475      -0.01632896      -0.02054906      -0.00010125       0.00421599      -0.00055366
H       -0.30309355       1.91179148       1.66308013       0.00195991       0.00028048       0.01346536       0.00273416      -0.00543199      -0.00442930
H        1.44272189       1.74045959       2.01026905      -0.03503381      -0.01069539      -0.02100664      -0.00479658       0.01385278       0.01287558
H        0.81648782       3.21194688       1.22191688      -0.00186173      -0.02419514      -0.00038249      -0.00247987       0.00252561       0.00320355
N        0.08585840       2.05646784      -1.09847157       0.03037184       0.03316032      -0.01992634      -0.01098644      -0.01938463      -0.00122647
O       -0.82616125       2.81479983      -0.77611072      -0.02422804       0.02353485      -0.01128612       0.00336689      -0.00508167       0.00073857
O        0.41359217       1.80821697      -2.25373948       0.00005429      -0.00595886       0.01771094       0.00039436      -0.00761427       0.00317722
17
Properties=species:S:1:pos:R:3:mp2_forces:R:3:forces:R:3 R1=NH2 R2=CN R3=CH3 R4=NO2 lg=Cl nu=F rxn-id=2641 mp2_energy=-28002.387738426252 energy=-28002.17401991936 free_energy=-28002.387738426252 pbc="F F F"
C        1.07601536      -0.05574774       0.14426603      -0.00843827      -0.03736395       0.08287885       3.56008533       0.12834287       1.21711101
C        0.95700240       1.46049903      -0.01565082       0.00357446      -0.01424274      -0.00326051       0.04022452      -0.01736668       0.00672653
H        1.95927584       1.66397564      -0.38565887      -0.00145314      -0.00756166       0.00387186      -0.07175802       0.29372393      -0.13177462
Cl      -1.36924088      -0.29405594      -0.40372033       0.04748297       0.03127742       0.02042898      -0.55526898      -0.12249898      -0.09133676
F        2.54427325       0.01532744       0.71041151       0.00663563      -0.04280169      -0.04611749      -2.60379078      -0.18001329      -0.96823595
N        1.33853492      -0.83499283      -1.02068082       0.00477174       0.00306392      -0.08826250       0.12404495       0.16117609       0.02045238
H        0.64391400      -1.53034389      -1.24902711       0.02471636      -0.02686888       0.05269119      -0.08640627       0.21949902       0.23140109