13
Properties=species:S:1:pos:R:3:mp2_forces:R:3:forces:R:3 R1=CN R2=H R3=H R4=CH3 lg=Br nu=Cl rxn-id=1218 mp2_energy=-88244.1785217059 energy=-88244.17851979299 free_energy=-88244.17851979299 pbc="F F F"
C        0.55396046      -0.02025143      -0.01684588      -0.02351650      -0.03029780      -0.05440682      -0.02346309      -0.03030766      -0.05439434
C        0.82627365       1.47876660      -0.12294602       0.03935184      -0.07799314       0.03249681       0.03935242      -0.07799786       0.03247472
H        1.91603292       1.54433541      -0.09501592       0.03547755       0.04075700      -0.01801361       0.03546882       0.04075436      -0.01800346
Br      -1.29293204      -0.35019353       0.65943043       0.02839210       0.02204943      -0.04016157       0.02839112       0.02205699      -0.04015947
Cl       3.72851499      -0.23075382      -0.17111898       0.04255989      -0.00608430       0.08770104       0.04255888      -0.00608364       0.08770011
H        1.22228594      -0.48887727       0.70469995       0.00084894       0.04774144      -0.02753058       0.00083091       0.04775205      -0.02752668
H        0.43223435       1.95430268       0.78030072      -0.01325977       0.00996036      -0.03331365      -0.01327121       0.00996788      -0.03330218
C        0.66161101      -0.72012051      -1.29095128       0.01279512      -0.01548911      -0.01618050       0.01278186      -0.01557282      -0.01635308
N        0.66473622      -1.25878833      -2.33529386      -0.05008864       0.01699185       0.01607834      -0.05008963       0.01706365       0.01623083
C        0.28702253       2.12553120      -1.39221275      -0.00732975      -0.02438529       0.04887864      -0.00732093      -0.02439226       0.04887212
H        0.87970654       1.79858607      -2.24929746      -0.06349046       0.01241109      -0.01703559      -0.06350019       0.01241587      -0.01702769
H       -0.75958139       1.86940557      -1.57911794      -0.01666752       0.00586074       0.04082991      -0.01666826       0.00586447       0.04083217
H        0.36234015       3.21396499      -1.32205887       0.01492719      -0.00152227      -0.01934242       0.01492928      -0.00152101      -0.01934305
13
Properties=species:S:1:pos:R:3:mp2_forces:R:3:forces:R:3 R1=CN R2=H R3=H R4=CH3 lg=Br nu=Cl rxn-id=1218 mp2_energy=-88244.1785217059 energy=-88244.18364170048 free_energy=-88244.17851979299 pbc="F F F"
C        0.55922056      -0.03176984      -0.03136369      -0.02351650      -0.03029780      -0.05440682       0.00140044      -0.00461636      -0.00893917
C        0.82137611       1.47093543      -0.12048779       0.03935184      -0.07799314       0.03249681       0.01175009      -0.00711934      -0.01328744
H        1.90849918       1.56516386      -0.05133018       0.03547755       0.04075700      -0.01801361       0.01459535      -0.01797817      -0.03385043
Br      -1.24844995      -0.38115773       0.72843607       0.02839210       0.02204943      -0.04016157      -0.00037620       0.01345034      -0.00465665
Cl       3.79237435      -0.15646783      -0.08008501       0.04255989      -0.00608430       0.08770104       0.01545851       0.01263815       0.07945879
H        1.26972396      -0.50475224       0.64436445       0.00084894       0.04774144      -0.02753058      -0.00000444      -0.00664649      -0.00810525
H        0.37987182       1.94046165       0.76427913      -0.01325977       0.00996036      -0.03331365       0.03436360      -0.00614137      -0.00203031
C        0.58472864      -0.71042794      -1.31831182       0.01279512      -0.01548911      -0.01618050      -0.00335119      -0.00347231      -0.00992910
N        0.51621220      -1.23791648      -2.36564909      -0.05008864       0.01699185       0.01607834       0.00103875       0.00145898      -0.01252002
C        0.31363180       2.11516427      -1.40305290      -0.00732975      -0.02438529       0.04887864      -0.01318390       0.00218073       0.00053154
H        0.92786121       1.79170005      -2.24627743      -0.06349046       0.01241109      -0.01703559      -0.03987074       0.00027689      -0.01901241
H       -0.72555429       1.85148500      -1.61640177      -0.01666752       0.00586074       0.04082991      -0.02254178       0.01494195       0.02722596
H        0.38270975       3.20348942      -1.33454780       0.01492719      -0.00152227      -0.01934242       0.00072150       0.00102700       0.00511449
13
Properties=species:S:1:pos:R:3:mp2_forces:R:3:forces:R:3 R1=CN R2=H R3=H R4=CH3 lg=Br nu=Cl rxn-id=1218 mp2_energy=-88244.1785217059 energy=-88244.16899709283 free_energy=-88244.17851979299 pbc="F F F"
C        0.55854969      -0.03142893      -0.02266149      -0.02351650      -0.03029780      -0.05440682       0.00164336      -0.00527870      -0.00829683
C        0.80943275       1.47452785      -0.10717382       0.03935184      -0.07799314       0.03249681       0.01214728      -0.00763329      -0.01256377
H        1.89271382       1.58101346      -0.01067253       0.03547755       0.04075700      -0.01801361       0.01622840      -0.01923941      -0.03409154
Br      -1.24185007      -0.39476221       0.74780033       0.02839210       0.02204943      -0.04016157      -0.00272105       0.01541312      -0.00652705
Cl       3.77531318      -0.14603836      -0.15134516       0.04255989      -0.00608430       0.08770104       0.01710335       0.01281451       0.07890584
H        1.27529603      -0.50452129       0.64568614       0.00084894       0.04774144      -0.02753058      -0.00000044      -0.00693574      -0.00697390
H        0.33814590       1.94340858       0.76246279      -0.01325977       0.00996036      -0.03331365       0.03475142      -0.00491834      -0.00143854
C        0.57661585      -0.70617392      -1.31162191       0.01279512      -0.01548911      -0.01618050      -0.00263861      -0.00317851      -0.00968017
N        0.49615795      -1.23153177      -2.35910210      -0.05008864       0.01699185       0.01607834       0.00226708       0.00105185      -0.01250342
C        0.33296370       2.10976366      -1.40617389      -0.00732975      -0.02438529       0.04887864      -0.01358656       0.00194993       0.00061918
H        0.97710860       1.78952893      -2.22798687      -0.06349046       0.01241109      -0.01703559      -0.04103339       0.00016524      -0.02065344
H       -0.69607655       1.83329261      -1.65033335      -0.01666752       0.00586074       0.04082991      -0.02437482       0.01495211       0.02718649
H        0.38783449       3.19882903      -1.33930600       0.01492719      -0.00152227      -0.01934242       0.00021396       0.00083724       0.00601716
13
Properties=species:S:1:pos:R:3:mp2_forces:R:3:forces:R:3 R1=CN R2=H R3=H R4=CH3 lg=Br nu=Cl rxn-id=1218 mp2_energy=-88244.1785217059 energy=-88244.15367134969 free_energy=-88244.17851979299 pbc="F F F"
C        0.56132905      -0.03007851      -0.01389022      -0.02351650      -0.03029780      -0.05440682      -0.00152298      -0.00565430      -0.00651185
C        0.79982489       1.47921140      -0.09364011       0.03935184      -0.07799314       0.03249681       0.00997616      -0.00808772      -0.01139176
H        1.87801184       1.60069177       0.02959012       0.03547755       0.04075700      -0.01801361       0.01603481      -0.02232822      -0.03541106
Br      -1.23726368      -0.40321725       0.75678729       0.02839210       0.02204943      -0.04016157      -0.00619816       0.01289445      -0.00479465
Cl       3.74002267      -0.14144273      -0.23192089       0.04255989      -0.00608430       0.08770104       0.02531827       0.01301595       0.07501242
H        1.28031194      -0.50277146       0.65144094       0.00084894       0.04774144      -0.02753058      -0.00227892      -0.00603420      -0.00555693
H        0.29853627       1.94606578       0.76030126      -0.01325977       0.00996036      -0.03331365       0.03510031      -0.00264767      -0.00037699
C        0.57830368      -0.70331689      -1.30363709       0.01279512      -0.01548911      -0.01618050      -0.00371098      -0.00236633      -0.00859081
N        0.48628546      -1.23002657      -2.34946268      -0.05008864       0.01699185       0.01607834       0.00519124       0.00307044      -0.01230226
C        0.35120139       2.10449721      -1.40706121      -0.00732975      -0.02438529       0.04887864      -0.01360275       0.00194138       0.00049421
H        1.02118049       1.78645919      -2.20887194      -0.06349046       0.01241109      -0.01703559      -0.03988087      -0.00091211      -0.01988051
H       -0.66803619       1.81557730      -1.67650948      -0.01666752       0.00586074       0.04082991      -0.02523138       0.01628342       0.02368345
H        0.39249752       3.19425840      -1.34355386       0.01492719      -0.00152227      -0.01934242       0.00080523       0.00082490       0.00562675
13
Properties=species:S:1:pos:R:3:mp2_forces:R:3:forces:R:3 R1=CN R2=H R3=H R4=CH3 lg=Br nu=Cl rxn-id=1218 mp2_energy=-88244.1785217059 energy=-88244.1457510541 free_energy=-88244.17851979299 pbc="F F F"
C        0.56557194      -0.02791810      -0.00904943      -0.02351650      -0.03029780      -0.05440682      -0.00590524      -0.00529112      -0.00470118
C        0.79803795       1.48291621      -0.08708240       0.03935184      -0.07799314       0.03249681       0.00583652      -0.00826155      -0.01026858
H        1.87345682       1.61416180       0.04698760       0.03547755       0.04075700      -0.01801361       0.01390433      -0.02803475      -0.03828193
Br      -1.23926631      -0.40176832       0.74905987       0.02839210       0.02204943      -0.04016157      -0.00642279       0.00855866      -0.00202414
Cl       3.70796421      -0.15111491      -0.28045448       0.04255989      -0.00608430       0.08770104       0.03708295       0.01299479       0.07103965
H        1.28008020      -0.49974424       0.66108461       0.00084894       0.04774144      -0.02753058      -0.00579040      -0.00453577      -0.00399346
H        0.28339188       1.94758897       0.75997832      -0.01325977       0.00996036      -0.03331365       0.03512835       0.00042890       0.00217095
C        0.59147011      -0.70317795      -1.29773448       0.01279512      -0.01548911      -0.01618050      -0.00756245      -0.00097232      -0.00658915
N        0.49529728      -1.23369418      -2.34129238      -0.05008864       0.01699185       0.01607834       0.00846245       0.00629537      -0.01287244
C        0.35732151       2.10268875      -1.40549026      -0.00732975      -0.02438529       0.04887864      -0.01397113       0.00212650       0.00023935
H        1.03575829       1.78617451      -2.20083145      -0.06349046       0.01241109      -0.01703559      -0.03760599      -0.00222985      -0.01762428
H       -0.65808383       1.80692426      -1.68143670      -0.01666752       0.00586074       0.04082991      -0.02549352       0.01801670       0.01847661
H        0.39120527       3.19287084      -1.34416667       0.01492719      -0.00152227      -0.01934242       0.00233693       0.00090445       0.00442862
13
Properties=species:S:1:pos:R:3:mp2_forces:R:3:forces:R:3 R1=CN R2=H R3=H R4=CH3 lg=Br nu=Cl rxn-id=1218 mp2_energy=-88244.1785217059 energy=-88244.13459711878 free_energy=-88244.17851979299 pbc="F F F"
C        0.57865406      -0.02443195      -0.00558324      -0.02351650      -0.03029780      -0.05440682      -0.02170942      -0.00088739       0.00146765
C        0.80369471       1.48904417      -0.08405907       0.03935184      -0.07799314       0.03249681      -0.01023200      -0.00803052      -0.00388988
H        1.87441086       1.64329328       0.06124216       0.03547755       0.04075700      -0.01801361       0.00661863      -0.05982588      -0.04832763
Br      -1.24342717      -0.38833126       0.72511227       0.02839210       0.02204943      -0.04016157      -0.00134679      -0.00395149      -0.00482724
Cl       3.64803456      -0.19295574      -0.33470449       0.04255989      -0.00608430       0.08770104       0.07339618       0.01172709       0.06344142
H        1.27790732      -0.49407048       0.68142462       0.00084894       0.04774144      -0.02753058      -0.00791403       0.00589958      -0.00863734
H        0.27168928       1.94397520       0.75653314      -0.01325977       0.00996036      -0.03331365       0.04055393       0.02105615       0.01465593
C        0.62765267      -0.70838680      -1.28947120       0.01279512      -0.01548911      -0.01618050      -0.02284124       0.00696896      -0.00119947
N        0.52342920      -1.25025990      -2.32671630      -0.05008864       0.01699185       0.01607834       0.01759817       0.01779365      -0.01201893
C        0.35857718       2.10498490      -1.40223798      -0.00732975      -0.02438529       0.04887864      -0.01958124       0.00074121       0.00143718
H        1.03818786       1.80074527      -2.20165300      -0.06349046       0.01241109      -0.01703559      -0.03141908      -0.01365891      -0.00314910
H       -0.65379621       1.79659119      -1.67327104      -0.01666752       0.00586074       0.04082991      -0.02783550       0.02257307       0.00152412
H        0.37719102       3.19570977      -1.33704373       0.01492719      -0.00152227      -0.01934242       0.00471239      -0.00040553      -0.00047671
13
Properties=species:S:1:pos:R:3:mp2_forces:R:3:forces:R:3 R1=CN R2=H R3=H R4=CH3 lg=Br nu=Cl rxn-id=1218 mp2_energy=-88244.1785217059 energy=-88244.09711223791 free_energy=-88244.17851979299 pbc="F F F"
C        0.59527062      -0.02955805      -0.00221724      -0.02351650      -0.03029780      -0.05440682      -0.12655886      -0.00762134       0.05303778
C        0.80364472       1.49344523      -0.07636147       0.03935184      -0.07799314       0.03249681      -0.06246096      -0.01313993       0.01790357
H        1.85579605       1.71397768       0.12358480       0.03547755       0.04075700      -0.01801361      -0.01548810      -0.17723423      -0.05343670
Br      -1.23588632      -0.40651407       0.76710002       0.02839210       0.02204943      -0.04016157       0.11810892       0.02976741      -0.09223946
Cl       3.57909622      -0.17920163      -0.42122810       0.04255989      -0.00608430       0.08770104       0.12749076       0.00920968       0.03897785
H        1.28510048      -0.50278877       0.68959745       0.00084894       0.04774144      -0.02753058       0.03309310       0.03374188      -0.04277746
H        0.20942972       1.91442149       0.73462140      -0.01325977       0.00996036      -0.03331365       0.03234919       0.10780564       0.03631859
C        0.63445388      -0.71358978      -1.28639297       0.01279512      -0.01548911      -0.01618050      -0.06461186       0.01866233       0.02612328
N        0.47884584      -1.25793609      -2.31683510      -0.05008864       0.01699185       0.01607834       0.04694090       0.03153392       0.00062822
C        0.39340659       2.10213018      -1.40856672      -0.00732975      -0.02438529       0.04887864      -0.03267246      -0.00919977       0.00789885
H        1.10143584       1.81594127      -2.19015172      -0.06349046       0.01241109      -0.01703559      -0.02217347      -0.03695010       0.02584724
H       -0.60411614       1.77203232      -1.70390685      -0.01666752       0.00586074       0.04082991      -0.03768143       0.02477437      -0.02074636
H        0.38572784       3.19354786      -1.33967136       0.01492719      -0.00152227      -0.01934242       0.00366427      -0.01134984       0.00246460
13
Properties=species:S:1:pos:R:3:mp2_forces:R:3:forces:R:3 R1=CN R2=H R3=H R4=CH3 lg=Br nu=Cl rxn-id=1218 mp2_energy=-88244.1785217059 energy=-88243.8989201458 free_energy=-88244.17851979299 pbc="F F F"
C        0.67982034      -0.02214032      -0.03943969      -0.02351650      -0.03029780      -0.05440682      -1.00665993      -0.15857933       0.37132584
C        0.85449838       1.50182760      -0.09284825       0.03935184      -0.07799314       0.03249681      -0.15520482      -0.05762957       0.04037081
H        1.87843157       1.81662567       0.13425278       0.03547755       0.04075700      -0.01801361      -0.01450094      -0.28998437      -0.05561133
Br      -1.32780418      -0.41936042       0.80755737       0.02839210       0.02204943      -0.04016157       0.61406276       0.16100488      -0.35498866
Cl       3.50443436      -0.18698147      -0.41943626       0.04255989      -0.00608430       0.08770104       0.28981881      -0.01637334      -0.01001699
H        1.25431931      -0.52394921       0.72662362       0.00084894       0.04774144      -0.02753058       0.22903746       0.09161519      -0.17000831
H        0.21469590       1.84380597       0.72021586      -0.01325977       0.00996036      -0.03331365       0.04036297       0.23823082       0.04663325
C        0.68555315      -0.72477815      -1.30422698       0.01279512      -0.01548911      -0.01618050      -0.01844172       0.03434186       0.05864921
N        0.46427113      -1.27510074      -2.32268407      -0.05008864       0.01699185       0.01607834       0.09164479       0.05470779       0.03663126
C        0.40278777       2.10901945      -1.41152542      -0.00732975      -0.02438529       0.04887864      -0.03431632      -0.02558169       0.01965672
H        1.08871708       1.83338706      -2.21593603      -0.06349046       0.01241109      -0.01703559      -0.00510014      -0.03576700       0.03837016
H       -0.59886419       1.76311143      -1.67199806      -0.01666752       0.00586074       0.04082991      -0.03500249       0.02240676      -0.03192981
H        0.38134470       3.20044078      -1.34098274       0.01492719      -0.00152227      -0.01934242       0.00429958      -0.01839202       0.01091785
13
Properties=species:S:1:pos:R:3:mp2_forces:R:3:forces:R:3 R1=CN R2=H R3=H R4=CH3 lg=Br nu=Cl rxn-id=1218 mp2_energy=-88244.1785217059 energy=-88243.6719460397 free_energy=-88244.17851979299 pbc="F F F"
C        0.78538328      -0.00590932      -0.07711525      -0.02351650      -0.03029780      -0.05440682      -1.15048317      -0.12270951       0.35846148
C        0.87074209       1.50780526      -0.09672723       0.03935184      -0.07799314       0.03249681      -0.05250588      -0.03371948       0.01085573
H        1.87991981       1.84713457       0.13979003       0.03547755       0.04075700      -0.01801361       0.01114543      -0.17924752      -0.03535367
Br      -1.39013397      -0.43578577       0.84184942       0.02839210       0.02204943      -0.04016157       0.43085393       0.11873845      -0.25155698
Cl       3.47081935      -0.18445615      -0.41992715       0.04255989      -0.00608430       0.08770104       0.29312009      -0.02294941      -0.02643615
H        1.23056979      -0.53379072       0.74581804       0.00084894       0.04774144      -0.02753058       0.30691665       0.05750593      -0.13094835
H        0.21065700       1.81915737       0.71540830      -0.01325977       0.00996036      -0.03331365       0.03429808       0.16084683       0.02594307
C        0.68763511      -0.72859396      -1.31006148       0.01279512      -0.01548911      -0.01618050       0.10765187       0.02564745       0.00371166
N        0.45466645      -1.28005080      -2.32572946      -0.05008864       0.01699185       0.01607834       0.05507974       0.02850588       0.01936608
C        0.40643045       2.11129684      -1.41344229      -0.00732975      -0.02438529       0.04887864      -0.01844507      -0.01466741       0.01291713
H        1.08949989       1.83662785      -2.21960399      -0.06349046       0.01241109      -0.01703559      -0.00208808      -0.01931289       0.02109489
H       -0.59518543       1.76058962      -1.66886077      -0.01666752       0.00586074       0.04082991      -0.01871466       0.01116307      -0.01399845
H        0.38120152       3.20188287      -1.34182604       0.01492719      -0.00152227      -0.01934242       0.00317106      -0.00980138       0.00594354
13
Properties=species:S:1:pos:R:3:mp2_forces:R:3:forces:R:3 R1=CN R2=H R3=H R4=CH3 lg=Br nu=Cl rxn-id=1218 mp2_energy=-88244.1785217059 energy=-88243.54322492673 free_energy=-88244.17851979299 pbc="F F F"
C        0.88318745       0.00417359      -0.10662099      -0.02351650      -0.03029780      -0.05440682      -0.51950575      -0.03412027       0.14766844
C        0.87548013       1.51062694      -0.09751569       0.03935184      -0.07799314       0.03249681      -0.00233394      -0.00436131       0.00372309
H        1.87929314       1.86230030       0.14212606       0.03547755       0.04075700      -0.01801361       0.00891699      -0.06087489      -0.01390229
Br      -1.42518805      -0.44510332       0.86013678       0.02839210       0.02204943      -0.04016157       0.16234645       0.04614063      -0.10448449
Cl       3.44324185      -0.18223615      -0.41815047       0.04255989      -0.00608430       0.08770104       0.10791671      -0.00888988      -0.01950508
H        1.20461346      -0.53876492       0.75811082       0.00084894       0.04774144      -0.02753058       0.15341279       0.00856008      -0.02893270
H        0.20846004       1.80573909       0.71340475      -0.01325977       0.00996036      -0.03331365       0.01368288       0.05646553       0.00726274
C        0.67897456      -0.73089669      -1.31001648       0.01279512      -0.01548911      -0.01618050       0.06843342       0.00277922      -0.01129162
N        0.45039524      -1.28198756      -2.32695970      -0.05008864       0.01699185       0.01607834       0.01773830       0.00965514       0.00736563
C        0.40775228       2.11224118      -1.41433002      -0.00732975      -0.02438529       0.04887864      -0.00568623      -0.00497752       0.00434417
H        1.08905507       1.83789514      -2.22152333      -0.06349046       0.01241109      -0.01703559      -0.00118871      -0.00760057       0.00699891
H       -0.59404920       1.75954894      -1.66704676      -0.01666752       0.00586074       0.04082991      -0.00552825       0.00217610      -0.00280565
H        0.38098936       3.20237110      -1.34204284       0.01492719      -0.00152227      -0.01934242       0.00179533      -0.00495224       0.00355885
13
Properties=species:S:1:pos:R:3:mp2_forces:R:3:forces:R:3 R1=CN R2=H R3=H R4=CH3 lg=Br nu=Cl rxn-id=1218 mp2_energy=-88244.1785217059 energy=-88243.53954343284 free_energy=-88244.17851979299 pbc="F F F"
C        0.98218307       0.00982697      -0.13248395      -0.02351650      -0.03029780      -0.05440682       0.48575228       0.00889371      -0.10257890
C        0.87631308       1.51133940      -0.09783398       0.03935184      -0.07799314       0.03249681       0.01217486      -0.00373598      -0.00243294
H        1.87783459       1.87376697       0.14417360       0.03547755       0.04075700      -0.01801361      -0.00845193       0.06081233       0.01206085
Br      -1.45258940      -0.45223596       0.87407005       0.02839210       0.02204943      -0.04016157      -0.10900557      -0.02315900       0.03694624
Cl       3.41628080      -0.17967702      -0.41627706       0.04255989      -0.00608430       0.08770104      -0.19594424       0.02217390      -0.00341808
H        1.17661523      -0.54049670       0.76589983       0.00084894       0.04774144      -0.02753058      -0.12565680       0.00084189       0.03408687
H        0.20653696       1.79543585       0.71210242      -0.01325977       0.00996036      -0.03331365      -0.00740166      -0.05317740      -0.00838972
C        0.66663642      -0.73195583      -1.30754154       0.01279512      -0.01548911      -0.01618050      -0.04802222      -0.00309770       0.01638037
N        0.44748715      -1.28259035      -2.32692874      -0.05008864       0.01699185       0.01607834      -0.01477742       0.00782475       0.01332399
C        0.40869834       2.11249315      -1.41479282      -0.00732975      -0.02438529       0.04887864       0.00662524      -0.00548753      -0.00001897
H        1.08875372       1.83876955      -2.22295230      -0.06349046       0.01241109      -0.01703559      -0.00022084       0.00224671      -0.00771438
H       -0.59336807       1.75870467      -1.66577918      -0.01666752       0.00586074       0.04082991       0.00422951      -0.00874933       0.00761820
H        0.38082343       3.20252693      -1.34208419       0.01492719      -0.00152227      -0.01934242       0.00069879      -0.00538634       0.00413647
13
Properties=species:S:1:pos:R:3:mp2_forces:R:3:forces:R:3 R1=CN R2=H R3=H R4=CH3 lg=Br nu=Cl rxn-id=1218 mp2_energy=-88244.1785217059 energy=-88243.66645438714 free_energy=-88244.17851979299 pbc="F F F"
C        1.08075168       0.00964793      -0.15316401      -0.02351650      -0.03029780      -0.05440682       1.28375305      -0.00597060      -0.25906208
C        0.87999000       1.50941753      -0.09955256       0.03935184      -0.07799314       0.03249681       0.04820866      -0.02574425      -0.01950055
H        1.87613467       1.88721388       0.14689522       0.03547755       0.04075700      -0.01801361      -0.02412103       0.17457030       0.03849058
Br      -1.47715032      -0.45786917       0.88628358       0.02839210       0.02204943      -0.04016157      -0.30294953      -0.06593484       0.13582829
Cl       3.37800284      -0.17568358      -0.41422644       0.04255989      -0.00608430       0.08770104      -0.53263942       0.05858414       0.01175882
H        1.14935763      -0.53818809       0.76743218       0.00084894       0.04774144      -0.02753058      -0.34213484       0.02959741       0.03056187
H        0.20547855       1.78337014       0.71034800      -0.01325977       0.00996036      -0.03331365      -0.01649695      -0.15587807      -0.02474868
C        0.65849944      -0.73098028      -1.30400027       0.01279512      -0.01548911      -0.01618050      -0.10475761       0.01006279       0.04841141
N        0.44433313      -1.28129208      -2.32471991      -0.05008864       0.01699185       0.01607834      -0.04280874       0.02202027       0.03576588
C        0.41005363       2.11149513      -1.41493115      -0.00732975      -0.02438529       0.04887864       0.01973780      -0.01634891      -0.00079137
H        1.08858183       1.83969121      -2.22488819      -0.06349046       0.01241109      -0.01703559       0.00100329       0.01065167      -0.02418094
H       -0.59261460       1.75720221      -1.66421960      -0.01666752       0.00586074       0.04082991       0.01240036      -0.02312808       0.01915869
H        0.38078685       3.20188280      -1.34168471       0.01492719      -0.00152227      -0.01934242       0.00080495      -0.01248183       0.00830809
13
Properties=species:S:1:pos:R:3:mp2_forces:R:3:forces:R:3 R1=CN R2=H R3=H R4=CH3 lg=Br nu=Cl rxn-id=1218 mp2_energy=-88244.1785217059 energy=-88243.90776111934 free_energy=-88244.17851979299 pbc="F F F"
C        1.18666277       0.00468593      -0.17112828      -0.02351650      -0.03029780      -0.05440682       1.55841223      -0.07536795      -0.25744532
C        0.89061102       1.50566344      -0.10308803       0.03935184      -0.07799314       0.03249681       0.15526614      -0.05584312      -0.04896740
H        1.87440732       1.90623152       0.15077058       0.03547755       0.04075700      -0.01801361      -0.02905751       0.27873085       0.06363867
Br      -1.50205497      -0.46318257       0.89906533       0.02839210       0.02204943      -0.04016157      -0.35316576      -0.07193620       0.17059266
Cl       3.31547941      -0.16951035      -0.41059599       0.04255989      -0.00608430       0.08770104      -0.94843880       0.09733867       0.03666669
H        1.12358362      -0.53273632       0.76356658       0.00084894       0.04774144      -0.02753058      -0.36391813       0.08029298      -0.04728672
H        0.20560820       1.76587883       0.70725428      -0.01325977       0.00996036      -0.03331365      -0.00419351      -0.25682859      -0.04887782
C        0.65803818      -0.72831095      -1.30036454       0.01279512      -0.01548911      -0.01618050      -0.00633473       0.04013908       0.06217318
N        0.43983361      -1.27839484      -2.32018086      -0.05008864       0.01699185       0.01607834      -0.07132757       0.04364881       0.06779630
C        0.41219680       2.10946436      -1.41504732      -0.00732975      -0.02438529       0.04887864       0.03492581      -0.03267709      -0.00129525
H        1.08832243       1.84097716      -2.22795549      -0.06349046       0.01241109      -0.01703559       0.00188089       0.01880912      -0.04381870
H       -0.59135401       1.75471557      -1.66187414      -0.01666752       0.00586074       0.04082991       0.02339372      -0.04098761       0.03174427
H        0.38087096       3.20042586      -1.34084998       0.01492719      -0.00152227      -0.01934242       0.00255722      -0.02531894       0.01507944
13
Properties=species:S:1:pos:R:3:mp2_forces:R:3:forces:R:3 R1=CN R2=H R3=H R4=CH3 lg=Br nu=Cl rxn-id=1218 mp2_energy=-88244.1785217059 energy=-88244.2389541236 free_energy=-88244.17851979299 pbc="F F F"
C        1.29686079      -0.00061176      -0.18734476      -0.02351650      -0.03029780      -0.05440682       0.61860659      -0.03268588      -0.08211264
C        0.92338888       1.50121248      -0.11063264       0.03935184      -0.07799314       0.03249681       0.19046924      -0.02459459      -0.04314712
H        1.87205943       1.95439306       0.16614861       0.03547755       0.04075700      -0.01801361      -0.00390202       0.26699245       0.06873611
Br      -1.54022651      -0.47021501       0.92943427       0.02839210       0.02204943      -0.04016157      -0.21277180      -0.03627078       0.13178134