16
Properties=species:S:1:pos:R:3:mp2_forces:R:3:forces:R:3 R1=H R2=CN R3=CH3 R4=CH3 lg=F nu=Cl rxn-id=434 mp2_energy=-22011.487394589458 energy=-22011.487392033003 free_energy=-22011.487392033003 pbc="F F F"
C        0.72454082      -0.03218788       0.08876733      -0.03896677       0.00442446      -0.01817307      -0.03899714       0.00443774      -0.01819572
C        1.13884898       1.42955549       0.01059445       0.01341464       0.00499137       0.00899461       0.01342597       0.00498863       0.00898442
H        2.23186094       1.39750642       0.00039079       0.02955290      -0.01984497       0.00971180       0.02954126      -0.01984154       0.00971298
F       -0.67044167      -0.15107466      -0.05357791      -0.03242196       0.03384788       0.02271197      -0.03239643       0.03384941       0.02272226
Cl       3.67101673      -0.51741389      -1.34796431      -0.01824549       0.02664944      -0.05921259      -0.01824442       0.02664812      -0.05921326
H        1.20947596      -0.58148815      -0.71873084       0.03597005      -0.03991448      -0.00366698       0.03597200      -0.03991073      -0.00366113
C        1.06663154      -0.66052539       1.37343471       0.00396468       0.01392011       0.02993926       0.00399206       0.01392781       0.02991469
N        1.27875008      -1.15133855       2.41813097       0.00695451       0.01675502       0.01440603       0.00692841       0.01673757       0.01443861
C        0.63893651       2.25836595       1.18776753      -0.01751692       0.00398690       0.02294043      -0.01751682       0.00397998       0.02293535
H       -0.45368695       2.28393255       1.22008703      -0.03168524      -0.02631347      -0.01584065      -0.03168504      -0.02631247      -0.01583954
H        0.99927025       1.86615486       2.14160159       0.00698353      -0.02008615       0.01396924       0.00698336      -0.02008470       0.01397307
H        0.99856303       3.28683614       1.09376419      -0.01922076       0.01405100       0.00462854      -0.01922150       0.01405143       0.00462981
C        0.66946335       1.99925856      -1.32474373       0.01540390      -0.00278595      -0.00668104       0.01540622      -0.00279075      -0.00667570
H        1.11282530       1.43330996      -2.14524512       0.03058649      -0.02124254      -0.02135835       0.03058279      -0.02123839      -0.02135501
H       -0.41954829       1.95860671      -1.40482912      -0.01120227       0.00464880      -0.00292795      -0.01119760       0.00464935      -0.00292848
H        0.98124745       3.04253126      -1.42322234       0.02642872       0.00691259       0.00055875       0.02642689       0.00690854       0.00055767
16
Properties=species:S:1:pos:R:3:mp2_forces:R:3:forces:R:3 R1=H R2=CN R3=CH3 R4=CH3 lg=F nu=Cl rxn-id=434 mp2_energy=-22011.487394589458 energy=-22011.548479834186 free_energy=-22011.487392033003 pbc="F F F"
C        0.76953395      -0.03739402       0.15679691      -0.03896677       0.00442446      -0.01817307       0.00632903       0.00146010       0.00220279
C        1.16677005       1.42847208       0.07164413       0.01341464       0.00499137       0.00899461       0.00127510       0.00292241       0.00431400
H        2.25859455       1.42277559       0.14166513       0.02955290      -0.01984497       0.00971180       0.00081962       0.00718887       0.00986986
F       -0.60904092      -0.17512736      -0.07905655      -0.03242196       0.03384788       0.02271197       0.00850505      -0.00392572      -0.00537663
Cl       3.38430334      -0.45859732      -2.01520797      -0.01824549       0.02664944      -0.05921259      -0.02329630      -0.01965357      -0.03357065
H        1.31946926      -0.59192826      -0.60979177       0.03597005      -0.03991448      -0.00366698       0.01191265       0.00381598       0.00439120
C        1.03159629      -0.61669090       1.48229861       0.00396468       0.01392011       0.02993926       0.00159148       0.00212132       0.00320481
N        1.19057115      -1.06142872       2.55707770       0.00695451       0.01675502       0.01440603      -0.00201544       0.00307064       0.00371256
C        0.56129595       2.25240211       1.20094218      -0.01751692       0.00398690       0.02294043      -0.00641673       0.00073866       0.00136107
H       -0.53144855       2.19392457       1.17566098      -0.03168524      -0.02631347      -0.01584065      -0.00599150      -0.00398269      -0.00247746
H        0.90062004       1.90686742       2.17960366       0.00698353      -0.02008615       0.01396924      -0.00844717       0.00278849       0.00277996
H        0.84697866       3.30238964       1.09573740      -0.01922076       0.01405100       0.00462854      -0.01055478       0.00185807       0.00171910
C        0.78563401       1.96981746      -1.30487373       0.01540390      -0.00278595      -0.00668104       0.00586166       0.00094568       0.00233694
H        1.26696796       1.36911040      -2.07989274       0.03058649      -0.02124254      -0.02135835       0.00951183       0.00071689       0.00484268
H       -0.29755662       1.95586254      -1.44501570      -0.01120227       0.00464880      -0.00292795       0.00675927      -0.00142141      -0.00183602
H        1.13346493       3.00157415      -1.41136299       0.02642872       0.00691259       0.00055875       0.00415623       0.00135629       0.00252579
16
Properties=species:S:1:pos:R:3:mp2_forces:R:3:forces:R:3 R1=H R2=CN R3=CH3 R4=CH3 lg=F nu=Cl rxn-id=434 mp2_energy=-22011.487394589458 energy=-22011.559057054383 free_energy=-22011.487392033003 pbc="F F F"
C        0.78066421      -0.02026818       0.15900637      -0.03896677       0.00442446      -0.01817307       0.01014177       0.00037442       0.00404587
C        1.16541347       1.44978104       0.08891592       0.01341464       0.00499137       0.00899461       0.00256719       0.00217580       0.00492420
H        2.25392476       1.46004190       0.19715582       0.02955290      -0.01984497       0.00971180       0.00191519       0.00785900       0.00917403
F       -0.60222463      -0.16354449      -0.04482746      -0.03242196       0.03384788       0.02271197       0.01377382      -0.00773161      -0.01217409
Cl       3.26483607      -0.64392575      -2.08645486      -0.01824549       0.02664944      -0.05921259      -0.02582822      -0.00501103      -0.04626063
H        1.31435395      -0.56498393      -0.62695458       0.03597005      -0.03991448      -0.00366698       0.02127061       0.00260069       0.00983876
C        1.08569427      -0.61292262       1.46914848       0.00396468       0.01392011       0.02993926      -0.00233725       0.00300628       0.00819371
N        1.29237706      -1.07010362       2.53040712       0.00695451       0.01675502       0.01440603      -0.01370227       0.00560233       0.01114961
C        0.51270364       2.25727149       1.20362399      -0.01751692       0.00398690       0.02294043      -0.00496536       0.00056414       0.00110310
H       -0.57704974       2.17313792       1.15177531      -0.03168524      -0.02631347      -0.01584065      -0.00451162      -0.00000469      -0.00607511
H        0.83615599       1.91628320       2.18950688       0.00698353      -0.02008615       0.01396924      -0.01124387       0.00045651       0.00301058
H        0.77586490       3.31420654       1.10963022      -0.01922076       0.01405100       0.00462854      -0.00496251       0.00074294       0.00317885
C        0.82588093       1.98959522      -1.29882971       0.01540390      -0.00278595      -0.00668104       0.00428105      -0.00185592       0.00293197
H        1.35928894       1.40716172      -2.05492340       0.03058649      -0.02124254      -0.02135835       0.00118411      -0.00667065       0.00435729
H       -0.24881194       1.93632714      -1.48701626      -0.01120227       0.00464880      -0.00292795       0.00409641       0.00135829       0.00383551
H        1.13868215       3.03397180      -1.38393861       0.02642872       0.00691259       0.00055875       0.00832095      -0.00346650      -0.00123366
16
Properties=species:S:1:pos:R:3:mp2_forces:R:3:forces:R:3 R1=H R2=CN R3=CH3 R4=CH3 lg=F nu=Cl rxn-id=434 mp2_energy=-22011.487394589458 energy=-22011.556464161662 free_energy=-22011.487392033003 pbc="F F F"
C        0.77780634      -0.01894397       0.15695910      -0.03896677       0.00442446      -0.01817307       0.00960190      -0.00024554       0.00447890
C        1.16427428       1.45064796       0.08698660       0.01341464       0.00499137       0.00899461       0.00238125       0.00152418       0.00497851
H        2.25293367       1.45990068       0.19381321       0.02955290      -0.01984497       0.00971180       0.00178536       0.00701556       0.00919678
F       -0.60680143      -0.15910188      -0.03702194      -0.03242196       0.03384788       0.02271197       0.01314185      -0.00839939      -0.01311114
Cl       3.27294120      -0.65183320      -2.05828527      -0.01824549       0.02664944      -0.05921259      -0.02396681      -0.00275361      -0.05054289
H        1.30532511      -0.56382451      -0.63287890       0.03597005      -0.03991448      -0.00366698       0.02169769       0.00185163       0.01076931
C        1.09150559      -0.61552709       1.46338746       0.00396468       0.01392011       0.02993926      -0.00409774       0.00416266       0.00798521
N        1.30597434      -1.07797204       2.52075720       0.00695451       0.01675502       0.01440603      -0.01490367       0.00751775       0.01394720
C        0.51302195       2.25796913       1.20273985      -0.01751692       0.00398690       0.02294043      -0.00473409       0.00021205       0.00116662
H       -0.57688879       2.17842320       1.14855805      -0.03168524      -0.02631347      -0.01584065      -0.00422739      -0.00017591      -0.00511273
H        0.83327843       1.91308829       2.18831970       0.00698353      -0.02008615       0.01396924      -0.01041989       0.00054274       0.00294114
H        0.78066343       3.31411501       1.11208470      -0.01922076       0.01405100       0.00462854      -0.00476846       0.00033310       0.00296267
C        0.82339755       1.99146854      -1.30005839       0.01540390      -0.00278595      -0.00668104       0.00428907      -0.00228284       0.00305647
H        1.35735723       1.41046275      -2.05680951       0.03058649      -0.02124254      -0.02135835       0.00125053      -0.00689671       0.00451513
H       -0.25135367       1.93668653      -1.48788438      -0.01120227       0.00464880      -0.00292795       0.00427283       0.00150510       0.00376101
H        1.13431880       3.03646999      -1.38444227       0.02642872       0.00691259       0.00055875       0.00869759      -0.00391076      -0.00099219
16
Properties=species:S:1:pos:R:3:mp2_forces:R:3:forces:R:3 R1=H R2=CN R3=CH3 R4=CH3 lg=F nu=Cl rxn-id=434 mp2_energy=-22011.487394589458 energy=-22011.54991920219 free_energy=-22011.487392033003 pbc="F F F"
C        0.76691170      -0.02068958       0.15256968      -0.03896677       0.00442446      -0.01817307       0.00851081      -0.00061456       0.00439068
C        1.16205017       1.44646727       0.07945347       0.01341464       0.00499137       0.00899461       0.00211412       0.00096783       0.00497274
H        2.25158194       1.44832601       0.17703283       0.02955290      -0.01984497       0.00971180       0.00182016       0.00611994       0.00912080
F       -0.62074128      -0.15179016      -0.02612425      -0.03242196       0.03384788       0.02271197       0.01150044      -0.00814375      -0.01412587
Cl       3.31082084      -0.62376140      -1.99546349      -0.01824549       0.02664944      -0.05921259      -0.01999634      -0.00209813      -0.05426723
H        1.28308598      -0.56904160      -0.64163819       0.03597005      -0.03991448      -0.00366698       0.02231116       0.00083506       0.01158282
C        1.09007282      -0.61990968       1.45559926       0.00396468       0.01392011       0.02993926      -0.00499824       0.00317257       0.01206670
N        1.31137618      -1.08462246       2.51061549       0.00695451       0.01675502       0.01440603      -0.01577873       0.00868549       0.01297656
C        0.52375036       2.25683867       1.20081890      -0.01751692       0.00398690       0.02294043      -0.00459224       0.00024385       0.00118760
H       -0.56700986       2.18671466       1.15214092      -0.03168524      -0.02631347      -0.01584065      -0.00434029      -0.00003309      -0.00444595
H        0.84623432       1.90667101       2.18378060       0.00698353      -0.02008615       0.01396924      -0.00963316       0.00115454       0.00313751
H        0.79997624       3.31084729       1.11139901      -0.01922076       0.01405100       0.00462854      -0.00454094       0.00045469       0.00223385
C        0.81357271       1.99079262      -1.30436042       0.01540390      -0.00278595      -0.00668104       0.00400098      -0.00228887       0.00317321
H        1.34461463       1.41261137      -2.06492496       0.03058649      -0.02124254      -0.02135835       0.00090796      -0.00676111       0.00433632
H       -0.26217761       1.93637970      -1.48694297      -0.01120227       0.00464880      -0.00292795       0.00384455       0.00213842       0.00393772
H        1.12363486       3.03619568      -1.38773065       0.02642872       0.00691259       0.00055875       0.00886975      -0.00383288      -0.00027747
16
Properties=species:S:1:pos:R:3:mp2_forces:R:3:forces:R:3 R1=H R2=CN R3=CH3 R4=CH3 lg=F nu=Cl rxn-id=434 mp2_energy=-22011.487394589458 energy=-22011.52070089538 free_energy=-22011.487392033003 pbc="F F F"
C        0.72334774      -0.02281832       0.13153439      -0.03896677       0.00442446      -0.01817307       0.00486055      -0.00318942       0.00554484
C        1.15391498       1.43367263       0.04857649       0.01341464       0.00499137       0.00899461       0.00046991      -0.00196475       0.00514920
H        2.24497328       1.40686621       0.11208733       0.02955290      -0.01984497       0.00971180       0.00053744      -0.00034032       0.00798708
F       -0.67680455      -0.11315315       0.03006768      -0.03242196       0.03384788       0.02271197       0.00681919      -0.01020509      -0.01641839
Cl       3.44521043      -0.53716370      -1.70927236      -0.01824549       0.02664944      -0.05921259      -0.00887912       0.01260446      -0.06326904
H        1.17874112      -0.58423477      -0.68751363       0.03597005      -0.03991448      -0.00366698       0.02182606      -0.00300584       0.01347393
C        1.09694629      -0.64016494       1.41306451       0.00396468       0.01392011       0.02993926      -0.01076910       0.00444683       0.01329231
N        1.35209286      -1.11884112       2.45393258       0.00695451       0.01675502       0.01440603      -0.01732587       0.00949715       0.01891766
C        0.56341647       2.25154772       1.19207345      -0.01751692       0.00398690       0.02294043      -0.00320232       0.00062568       0.00145318
H       -0.52942168       2.20842101       1.17006026      -0.03168524      -0.02631347      -0.01584065      -0.00335867       0.00325261      -0.00374481
H        0.90121014       1.88416005       2.16360401       0.00698353      -0.02008615       0.01396924      -0.00868303       0.00248845       0.00404847
H        0.86298762       3.29929700       1.10540109      -0.01922076       0.01405100       0.00462854      -0.00052025      -0.00018252       0.00014553
C        0.77858159       1.99227697      -1.32217050       0.01540390      -0.00278595      -0.00668104       0.00367668      -0.00351199       0.00345965
H        1.30676906       1.43110433      -2.09624890       0.03058649      -0.02124254      -0.02135835      -0.00116971      -0.00968591       0.00449679
H       -0.29935302       1.92874234      -1.49115962      -0.01120227       0.00464880      -0.00292795       0.00290345       0.00525586       0.00471242
H        1.07514169       3.04231713      -1.39781156       0.02642872       0.00691259       0.00055875       0.01281482      -0.00608521       0.00075118
16
Properties=species:S:1:pos:R:3:mp2_forces:R:3:forces:R:3 R1=H R2=CN R3=CH3 R4=CH3 lg=F nu=Cl rxn-id=434 mp2_energy=-22011.487394589458 energy=-22011.488001905436 free_energy=-22011.487392033003 pbc="F F F"
C        0.70269358      -0.01204054       0.10920919      -0.03896677       0.00442446      -0.01817307      -0.00105648      -0.00677804       0.00704413
C        1.15224346       1.43898467       0.02564289       0.01341464       0.00499137       0.00899461      -0.00575341      -0.00616159       0.00709619
H        2.24318886       1.40345256       0.07189957       0.02955290      -0.01984497       0.00971180      -0.00600293      -0.01387247       0.00854253
F       -0.70504306      -0.07268680       0.09034533      -0.03242196       0.03384788       0.02271197      -0.00015851      -0.01720493      -0.02545672
Cl       3.49751987      -0.56319805      -1.44396818      -0.01824549       0.02664944      -0.05921259       0.01015752       0.02363741      -0.08259930
H        1.09230540      -0.57527133      -0.73946209       0.03597005      -0.03991448      -0.00366698       0.02803064      -0.00765189       0.01790842
C        1.13188654      -0.65780251       1.35877297       0.00396468       0.01392011       0.02993926      -0.01881079       0.00604524       0.01909068
N        1.40850743      -1.15849404       2.38359969       0.00695451       0.01675502       0.01440603      -0.01171323       0.01289546       0.02326444
C        0.58365416       2.24871299       1.18591865      -0.01751692       0.00398690       0.02294043      -0.00386216       0.00259207       0.00285040
H       -0.50886179       2.20358098       1.18534367      -0.03168524      -0.02631347      -0.01584065      -0.00492832       0.01547572      -0.00121890
H        0.94128370       1.86948630       2.14607155       0.00698353      -0.02008615       0.01396924      -0.01215766       0.00510653       0.00690167
H        0.88040324       3.29761830       1.10631863      -0.01922076       0.01405100       0.00462854       0.00724988      -0.00034360      -0.00180905
C        0.75752999       2.00351794      -1.33678323       0.01540390      -0.00278595      -0.00668104       0.00223693      -0.00441399       0.00490539
H        1.30079223       1.46694944      -2.11772143       0.03058649      -0.02124254      -0.02135835      -0.00384601      -0.01487556       0.00744285
H       -0.31818322       1.90563934      -1.50545148      -0.01120227       0.00464880      -0.00292795       0.00003369       0.01389140       0.00289628
H        1.01783365       3.06358014      -1.40351052       0.02642872       0.00691259       0.00055875       0.02058082      -0.00834175       0.00314100
16
Properties=species:S:1:pos:R:3:mp2_forces:R:3:forces:R:3 R1=H R2=CN R3=CH3 R4=CH3 lg=F nu=Cl rxn-id=434 mp2_energy=-22011.487394589458 energy=-22011.41866656419 free_energy=-22011.487392033003 pbc="F F F"
C        0.70651072       0.01226692       0.08086236      -0.03896677       0.00442446      -0.01817307      -0.03651117      -0.00972225       0.01326464
C        1.17436308       1.46079025      -0.00321942       0.01341464       0.00499137       0.00899461      -0.04444984      -0.01543730       0.01439642
H        2.26638088       1.45278679       0.03209539       0.02955290      -0.01984497       0.00971180      -0.04288489      -0.09373275       0.00762988
F       -0.70479961      -0.00793201       0.17750797      -0.03242196       0.03384788       0.02271197      -0.02342108      -0.04089308      -0.05128480
Cl       3.47635720      -0.63990512      -1.11725015      -0.01824549       0.02664944      -0.05921259       0.10224966      -0.00132171      -0.12226792
H        0.98972745      -0.54824225      -0.80695590       0.03597005      -0.03991448      -0.00366698       0.07603787      -0.00446451       0.02989472
C        1.19482905      -0.67897903       1.28280194       0.00396468       0.01392011       0.02993926      -0.03665405       0.01135921       0.03206712
N        1.44177407      -1.20848045       2.30095285       0.00695451       0.01675502       0.01440603       0.02627561       0.01715105       0.01496241
C        0.60536872       2.23860019       1.17543389      -0.01751692       0.00398690       0.02294043      -0.00995932       0.01932846       0.01148151
H       -0.48340373       2.15294561       1.19024740      -0.03168524      -0.02631347      -0.01584065      -0.01729334       0.06820798       0.02721330
H        0.99185552       1.84556295       2.11947407       0.00698353      -0.02008615       0.01396924      -0.01566211       0.01812322       0.01304282
H        0.86777835       3.29665955       1.11554429      -0.01922076       0.01405100       0.00462854       0.02489624       0.01204569       0.00001694
C        0.74196162       2.01892330      -1.35517306       0.01540390      -0.00278595      -0.00668104      -0.01074084       0.00026746       0.00626504
H        1.30500715       1.52316772      -2.14881025       0.03058649      -0.02124254      -0.02135835      -0.00513715      -0.01920268       0.02096501
H       -0.32618714       1.84955665      -1.51081781      -0.01120227       0.00464880      -0.00292795      -0.01639351       0.04339357      -0.02679833
H        0.93023068       3.09430832      -1.41646835       0.02642872       0.00691259       0.00055875       0.02964792      -0.00510236       0.00915124
16
Properties=species:S:1:pos:R:3:mp2_forces:R:3:forces:R:3 R1=H R2=CN R3=CH3 R4=CH3 lg=F nu=Cl rxn-id=434 mp2_energy=-22011.487394589458 energy=-22011.132225078294 free_energy=-22011.487392033003 pbc="F F F"
C        0.77765117       0.03162946       0.05221760      -0.03896677       0.00442446      -0.01817307      -0.83170910       0.07304345       0.17045393
C        1.26050375       1.49096421      -0.03307423       0.01341464       0.00499137       0.00899461      -0.21342879      -0.04742269       0.03713512
H        2.34969657       1.63414825       0.01188944       0.02955290      -0.01984497       0.00971180      -0.12445706      -0.34882250       0.00102445
F       -0.65889941       0.07133649       0.27084747      -0.03242196       0.03384788       0.02271197       0.23070654      -0.03385394      -0.04557138
Cl       3.28741275      -0.63718213      -0.86457758      -0.01824549       0.02664944      -0.05921259       0.55194286      -0.18479376      -0.24637505
H        0.84611123      -0.53944174      -0.86654169       0.03597005      -0.03991448      -0.00366698       0.37411725       0.02353818       0.01221777
C        1.26498477      -0.70426292       1.22543403       0.00396468       0.01392011       0.02993926       0.00119089       0.02208163       0.00980130
N        1.38235947      -1.23979304       2.26656799       0.00695451       0.01675502       0.01440603       0.10126041       0.01281528      -0.03754627
C        0.62899551       2.20081930       1.15348721      -0.01751692       0.00398690       0.02294043      -0.01108656       0.08627060       0.03356683
H       -0.44592003       2.02422142       1.13935308      -0.03168524      -0.02631347      -0.01584065      -0.05008063       0.19458291       0.10351733
H        1.02670217       1.80741931       2.09325111       0.00698353      -0.02008615       0.01396924      -0.00013297       0.03793162       0.00472081
H        0.82723942       3.27230075       1.11726662      -0.01922076       0.01405100       0.00462854       0.02603760       0.05532923       0.03345934
C        0.75759872       2.01890173      -1.36749301       0.01540390      -0.00278595      -0.00668104      -0.03162596       0.01714993      -0.00235990
H        1.30869461       1.56285930      -2.19169357       0.03058649      -0.02124254      -0.02135835       0.00626458      -0.02223894       0.05076792
H       -0.29964846       1.76293704      -1.45644177      -0.01120227       0.00464880      -0.00292795      -0.04830300       0.10666506      -0.12751460
H        0.86427181       3.10517194      -1.43426748       0.02642872       0.00691259       0.00055875       0.01930395       0.00772393       0.00270240
16
Properties=species:S:1:pos:R:3:mp2_forces:R:3:forces:R:3 R1=H R2=CN R3=CH3 R4=CH3 lg=F nu=Cl rxn-id=434 mp2_energy=-22011.487394589458 energy=-22010.23952197995 free_energy=-22011.487392033003 pbc="F F F"
C        0.96620258       0.01547776       0.01302083      -0.03896677       0.00442446      -0.01817307      -2.69609441       0.36276610       0.60774643
C        1.30889687       1.50188119      -0.04167913       0.01341464       0.00499137       0.00899461      -0.07575639      -0.05240573       0.01124893
H        2.37782472       1.71327974       0.01099324       0.02955290      -0.01984497       0.00971180      -0.03927364      -0.24396901      -0.01374524
F       -0.71117908       0.07906407       0.28032990      -0.03242196       0.03384788       0.02271197       1.11633512      -0.03602461      -0.19533308
Cl       3.16347764      -0.59532154      -0.80726587      -0.01824549       0.02664944      -0.05921259       0.59022244      -0.21095092      -0.23071867
H        0.76208864      -0.54481343      -0.86971575       0.03597005      -0.03991448      -0.00366698       0.68216014      -0.09215233      -0.19909195
C        1.26485463      -0.71130886       1.22690379       0.00396468       0.01392011       0.02993926       0.30146920      -0.03157690      -0.06230348
N        1.35790611      -1.24121378       2.27196122       0.00695451       0.01675502       0.01440603       0.09339479      -0.03852524       0.04032175
C        0.63200454       2.18128378       1.14594211      -0.01751692       0.00398690       0.02294043       0.01260711       0.05345748       0.00827277
H       -0.43414165       1.98059203       1.11613025      -0.03168524      -0.02631347      -0.01584065      -0.00064219       0.15370461       0.06576600
H        1.02723843       1.79847240       2.09209212       0.00698353      -0.02008615       0.01396924       0.00882009       0.02598310      -0.00260669
H        0.82225598       3.25971387       1.10999940      -0.01922076       0.01405100       0.00462854       0.01658234       0.03300911       0.02459523
C        0.76413356       2.01499067      -1.36696242       0.01540390      -0.00278595      -0.00668104      -0.00382973       0.01356961      -0.00502916
H        1.30656330       1.56813143      -2.20340084       0.03058649      -0.02124254      -0.02135835       0.00649388      -0.01155970       0.03231855
H       -0.28924522       1.73834984      -1.42724590      -0.01120227       0.00464880      -0.00292795      -0.02047398       0.06793576      -0.07576104
H        0.85887299       3.10345021      -1.43487772       0.02642872       0.00691259       0.00055875       0.00798522       0.00673867      -0.00568035
16
Properties=species:S:1:pos:R:3:mp2_forces:R:3:forces:R:3 R1=H R2=CN R3=CH3 R4=CH3 lg=F nu=Cl rxn-id=434 mp2_energy=-22011.487394589458 energy=-22009.908443185694 free_energy=-22011.487392033003 pbc="F F F"
C        1.09525810      -0.00202729      -0.01593561      -0.03896677       0.00442446      -0.01817307      -0.94288959       0.18911614       0.25694905
C        1.31250735       1.50437226      -0.04224982       0.01341464       0.00499137       0.00899461      -0.02095407       0.01077641       0.00310054
H        2.37972987       1.72500613       0.01150898       0.02955290      -0.01984497       0.00971180      -0.01022057      -0.09330824      -0.01215310
F       -0.76457052       0.08081450       0.28953120      -0.03242196       0.03384788       0.02271197       0.31036773      -0.00857755      -0.05865829
Cl       3.13545607      -0.58523172      -0.79590977      -0.01824549       0.02664944      -0.05921259       0.26026650      -0.08868505      -0.09479313
H        0.72966668      -0.54038122      -0.86016926       0.03597005      -0.03991448      -0.00366698       0.23976477      -0.06917542      -0.12279832
C        1.25009691      -0.70874099       1.22791916       0.00396468       0.01392011       0.02993926       0.12903706      -0.03842518       0.00113890
N        1.35334622      -1.24028173       2.27169900       0.00695451       0.01675502       0.01440603       0.02788966      -0.01935933       0.01834079
C        0.63151460       2.17873133       1.14556530      -0.01751692       0.00398690       0.02294043       0.00480148       0.01249420      -0.00193695
H       -0.43402478       1.97332048       1.11301506      -0.03168524      -0.02631347      -0.01584065       0.00403638       0.06017215       0.02399863
H        1.02692043       1.79715249       2.09219941       0.00698353      -0.02008615       0.01396924       0.00473781       0.00648080      -0.00075057
H        0.82164432       3.25812688       1.10888873      -0.01922076       0.01405100       0.00462854       0.00520176       0.01118228       0.00887476
C        0.76419739       2.01432933      -1.36671236       0.01540390      -0.00278595      -0.00668104      -0.00310695       0.00541441      -0.00441209
H        1.30610648       1.56872293      -2.20498315       0.03058649      -0.02124254      -0.02135835       0.00036692      -0.00576784       0.01307598
H       -0.28836481       1.73499564      -1.42354275      -0.01120227       0.00464880      -0.00292795      -0.00862232       0.02608331      -0.02853566
H        0.85826973       3.10312037      -1.43459890       0.02642872       0.00691259       0.00055875      -0.00067657       0.00157891      -0.00144054
16
Properties=species:S:1:pos:R:3:mp2_forces:R:3:forces:R:3 R1=H R2=CN R3=CH3 R4=CH3 lg=F nu=Cl rxn-id=434 mp2_energy=-22011.487394589458 energy=-22009.856696407813 free_energy=-22011.487392033003 pbc="F F F"