16
Properties=species:S:1:pos:R:3:mp2_forces:R:3:forces:R:3 R1=NH2 R2=CH3 R3=NH2 R4=H lg=F nu=Cl rxn-id=2725 mp2_energy=-21445.125613420958 energy=-21445.125615941688 free_energy=-21445.125615941688 pbc="F F F"
C        0.72782471      -0.16596777       0.09673149       0.03713180       0.02569159       0.00463225       0.03710213       0.02568767       0.00459710
C        1.17616286       1.29733943       0.14080472       0.00302780       0.00691061      -0.02952575       0.00302288       0.00692419      -0.02949736
H        2.19856952       1.34554712      -0.25001565       0.03867296      -0.05489592       0.06410866       0.03868418      -0.05489804       0.06410503
F       -0.67603477      -0.18062519      -0.23138344       0.02166162       0.03861550       0.06306226       0.02167542       0.03860827       0.06306511
Cl       4.43654498       1.35099667       1.64651349      -0.07832857       0.02851790       0.05475499      -0.07832627       0.02851818       0.05475508
H        0.50938193       1.83643302      -0.53882516      -0.02485743      -0.00509003      -0.06907904      -0.02486053      -0.00509270      -0.06908183
N        1.44750865      -0.85392822      -0.92372863      -0.01951957      -0.06035544      -0.02554330      -0.01952654      -0.06035702      -0.02557113
H        1.48383719      -0.30437094      -1.77177875      -0.04896808       0.02762924      -0.07412234      -0.04897253       0.02762148      -0.07410438
H        1.00481275      -1.74431037      -1.12049611       0.00062471       0.06537201       0.00257917       0.00063983       0.06538482       0.00259202
C        0.85897178      -0.89531629       1.41093703       0.03787371      -0.02454697      -0.01203961       0.03787197      -0.02455070      -0.01202263
H        0.74048126      -1.96933351       1.23850438      -0.05492657      -0.02296511       0.05358510      -0.05492690      -0.02296881       0.05358161
H        1.84913495      -0.70866441       1.82805624       0.04127925      -0.03301349      -0.01827114       0.04128742      -0.03301226      -0.01827047
H        0.09881750      -0.54282918       2.10620840       0.06113949       0.03818827      -0.00588776       0.06113735       0.03819206      -0.00588566
N        1.08496577       1.87703149       1.48083800       0.00373947      -0.00096739      -0.01829176       0.00374674      -0.00094609      -0.01829656
H        0.99012321       2.88113105       1.38086287      -0.02208025      -0.01753867      -0.02314809      -0.02207329      -0.01755439      -0.02315163
H        2.00955360       1.74245067       1.89296146       0.00352966      -0.01155210       0.03318637       0.00351814      -0.01155667       0.03318569
16
Properties=species:S:1:pos:R:3:mp2_forces:R:3:forces:R:3 R1=NH2 R2=CH3 R3=NH2 R4=H lg=F nu=Cl rxn-id=2725 mp2_energy=-21445.125613420958 energy=-21445.290357552854 free_energy=-21445.125615941688 pbc="F F F"
C        0.75192572      -0.15146016       0.08243207       0.03713180       0.02569159       0.00463225      -0.00000534      -0.00010392       0.00009512
C        1.28126324       1.27694250       0.07842844       0.00302780       0.00691061      -0.02952575       0.00045967      -0.00032859       0.00052412
H        2.36000857       1.21501593      -0.09243812       0.03867296      -0.05489592       0.06410866       0.00047646      -0.00073128       0.00125854
F       -0.68311453      -0.08319183       0.07499283       0.02166162       0.03861550       0.06306226       0.00004248       0.00041138      -0.00031010
Cl       3.98234755       1.21810379       2.46117450      -0.07832857       0.02851790       0.05475499       0.00111404       0.00245539      -0.00258608
H        0.81018023       1.79339351      -0.77238647      -0.02485743      -0.00509003      -0.06907904       0.00121960      -0.00011574       0.00029079
N        1.20173404      -0.82197302      -1.09071612      -0.01951957      -0.06035544      -0.02554330       0.00012952      -0.00000323       0.00010142
H        0.87905355      -0.33526287      -1.91845950      -0.04896808       0.02762924      -0.07412234       0.00076052       0.00043475       0.00013829
H        0.84032865      -1.76928915      -1.10517674       0.00062471       0.06537201       0.00257917      -0.00045366       0.00023252      -0.00035742
C        1.14674498      -0.89769828       1.33038334       0.03787371      -0.02454697      -0.01203961      -0.00061513      -0.00046683       0.00004941
H        0.87341718      -1.95382471       1.24688846      -0.05492657      -0.02296511       0.05358510      -0.00078262      -0.00039593      -0.00026566
H        2.21969312      -0.79546372       1.50039892       0.04127925      -0.03301349      -0.01827114      -0.00062868      -0.00075310       0.00030820
H        0.62329468      -0.45853224       2.18491745       0.06113949       0.03818827      -0.00588776      -0.00078211      -0.00054853      -0.00005255
N        0.94382891       1.97222610       1.31455186       0.00373947      -0.00096739      -0.01829176      -0.00006132      -0.00030583       0.00037658
H        0.99062016       2.97021699       1.13758239      -0.02208025      -0.01753867      -0.02314809      -0.00101762      -0.00035336       0.00011227
H        1.71932983       1.78638072       1.95361702       0.00352966      -0.01155210       0.03318637       0.00014420       0.00057232       0.00031707
16
Properties=species:S:1:pos:R:3:mp2_forces:R:3:forces:R:3 R1=NH2 R2=CH3 R3=NH2 R4=H lg=F nu=Cl rxn-id=2725 mp2_energy=-21445.125613420958 energy=-21445.289012329147 free_energy=-21445.125615941688 pbc="F F F"
C        0.75231533      -0.15006208       0.07995673       0.03713180       0.02569159       0.00463225       0.00008913      -0.00016088       0.00026880
C        1.27436217       1.28115793       0.06276443       0.00302780       0.00691061      -0.02952575       0.00115804      -0.00055430       0.00143836
H        2.35015806       1.22385490      -0.12885331       0.03867296      -0.05489592       0.06410866       0.00157235      -0.00133815       0.00416413
F       -0.68284382      -0.08847667       0.09393038       0.02166162       0.03861550       0.06306226       0.00012171       0.00088036      -0.00082939
Cl       3.93771133       1.17992727       2.56912421      -0.07832857       0.02851790       0.05475499       0.00277512       0.00424429      -0.00792732
H        0.78723098       1.79314234      -0.78201704      -0.02485743      -0.00509003      -0.06907904       0.00342917      -0.00022754       0.00038201
N        1.18775811      -0.82379131      -1.09662268      -0.01951957      -0.06035544      -0.02554330       0.00048196       0.00017465       0.00021269
H        0.84933779      -0.34274984      -1.92158042      -0.04896808       0.02762924      -0.07412234       0.00136819       0.00087173       0.00025608
H        0.83130265      -1.77307083      -1.10108559       0.00062471       0.06537201       0.00257917      -0.00035702       0.00047481      -0.00056099
C        1.16890070      -0.88998174       1.32436818       0.03787371      -0.02454697      -0.01203961      -0.00135033      -0.00105101       0.00024205
H        0.89431608      -1.94649942       1.24966790      -0.05492657      -0.02296511       0.05358510      -0.00180113      -0.00088267      -0.00049063
H        2.24367959      -0.78699097       1.47824369       0.04127925      -0.03301349      -0.01827114      -0.00137019      -0.00165046       0.00096850
H        0.66023343      -0.44791504       2.18676148       0.06113949       0.03818827      -0.00588776      -0.00182437      -0.00118225      -0.00001744
N        0.95175401       1.97965942       1.30109622       0.00373947      -0.00096739      -0.01829176      -0.00097035      -0.00045009       0.00078958
H        1.01338616       2.97729248       1.12598624      -0.02208025      -0.01753867      -0.02314809      -0.00265263      -0.00046417       0.00023570
H        1.72105334       1.78008713       1.94444992       0.00352966      -0.01155210       0.03318637      -0.00066965       0.00131568       0.00086785
16
Properties=species:S:1:pos:R:3:mp2_forces:R:3:forces:R:3 R1=NH2 R2=CH3 R3=NH2 R4=H lg=F nu=Cl rxn-id=2725 mp2_energy=-21445.125613420958 energy=-21445.289688602785 free_energy=-21445.125615941688 pbc="F F F"
C        0.74914066      -0.15392242       0.08435384       0.03713180       0.02569159       0.00463225       0.00017257       0.00007203      -0.00003300
C        1.28370204       1.27180687       0.09625105       0.00302780       0.00691061      -0.02952575       0.00008632       0.00014824      -0.00088101
H        2.36316457       1.20763437      -0.06508546       0.03867296      -0.05489592       0.06410866       0.00011105       0.00010685      -0.00096046
F       -0.68527054      -0.08074859       0.04223809       0.02166162       0.03861550       0.06306226       0.00011075      -0.00001038       0.00204826
Cl       4.04789972       1.27699113       2.32109259      -0.07832857       0.02851790       0.05475499      -0.00350292      -0.00271402       0.00766882
H        0.81945777       1.79614060      -0.75317335      -0.02485743      -0.00509003      -0.06907904       0.00009646      -0.00032630      -0.00119305
N        1.22548012      -0.82185848      -1.07985273      -0.01951957      -0.06035544      -0.02554330      -0.00152261      -0.00005794      -0.00065259
H        0.93488379      -0.32646460      -1.91371358      -0.04896808       0.02762924      -0.07412234      -0.00292137      -0.00015935      -0.00025878
H        0.85620860      -1.76550356      -1.11128051       0.00062471       0.06537201       0.00257917      -0.00174643      -0.00002220       0.00001612
C        1.11126657      -0.90457971       1.33969423       0.03787371      -0.02454697      -0.01203961       0.00203791       0.00019319      -0.00048865
H        0.84385910      -1.96119936       1.24552298      -0.05492657      -0.02296511       0.05358510       0.00183641       0.00019363      -0.00003065
H        2.18054829      -0.79997735       1.53535098       0.04127925      -0.03301349      -0.01827114       0.00224917       0.00016950      -0.00187777
H        0.56310765      -0.46937643       2.18001357       0.06113949       0.03818827      -0.00588776       0.00330721       0.00025489       0.00034360
N        0.94270503       1.95765598       1.33710164       0.00373947      -0.00096739      -0.01829176      -0.00008697       0.00083336      -0.00135620
H        0.97496162       2.95658039       1.16337365      -0.02208025      -0.01753867      -0.02314809       0.00048598       0.00076020      -0.00174432
H        1.72954091       1.78240474       1.96430335       0.00352966      -0.01155210       0.03318637      -0.00071352       0.00055829      -0.00060032
16
Properties=species:S:1:pos:R:3:mp2_forces:R:3:forces:R:3 R1=NH2 R2=CH3 R3=NH2 R4=H lg=F nu=Cl rxn-id=2725 mp2_energy=-21445.125613420958 energy=-21445.28745281872 free_energy=-21445.125615941688 pbc="F F F"
C        0.74729219      -0.15472439       0.08451583       0.03713180       0.02569159       0.00463225       0.00035325       0.00002453       0.00008726
C        1.28491662       1.26930605       0.10661400       0.00302780       0.00691061      -0.02952575      -0.00033548       0.00037543      -0.00199462
H        2.36438504       1.20380976      -0.05114230       0.03867296      -0.05489592       0.06410866      -0.00035291       0.00072374      -0.00279783
F       -0.68627981      -0.07845144       0.02077293       0.02166162       0.03861550       0.06306226       0.00017179      -0.00064706       0.00425502
Cl       4.08531806       1.31487401       2.23883448      -0.07832857       0.02851790       0.05475499      -0.00713220      -0.00711836       0.01561013
H        0.82365668       1.79952508      -0.74056519      -0.02485743      -0.00509003      -0.06907904      -0.00107061      -0.00087421      -0.00241540
N        1.24020959      -0.82093773      -1.07381940      -0.01951957      -0.06035544      -0.02554330      -0.00279129      -0.00042146      -0.00096723
H        0.96118946      -0.32529129      -1.91129148      -0.04896808       0.02762924      -0.07412234      -0.00337144       0.00037217      -0.00030058
H        0.87467514      -1.76553668      -1.11107663       0.00062471       0.06537201       0.00257917      -0.00494781       0.00033441      -0.00067009
C        1.08898474      -0.90811089       1.34395564       0.03787371      -0.02454697      -0.01203961       0.00432986       0.00062440      -0.00065855
H        0.82282901      -1.96443201       1.24406004      -0.05492657      -0.02296511       0.05358510       0.00403259       0.00056851       0.00053573
H        2.15611404      -0.80441618       1.55431812       0.04127925      -0.03301349      -0.01827114       0.00478338       0.00075436      -0.00363754
H        0.52791468      -0.47381939       2.17584016       0.06113949       0.03818827      -0.00588776       0.00692931       0.00089616       0.00098982
N        0.94383632       1.94824586       1.35184874       0.00373947      -0.00096739      -0.01829176      -0.00028209       0.00178807      -0.00288861
H        0.96856032       2.94780956       1.18159021      -0.02208025      -0.01753867      -0.02314809       0.00115649       0.00166043      -0.00364037
H        1.73705382       1.77773326       1.97173519       0.00352966      -0.01155210       0.03318637      -0.00147284       0.00093888      -0.00150712
16
Properties=species:S:1:pos:R:3:mp2_forces:R:3:forces:R:3 R1=NH2 R2=CH3 R3=NH2 R4=H lg=F nu=Cl rxn-id=2725 mp2_energy=-21445.125613420958 energy=-21445.28744330039 free_energy=-21445.125615941688 pbc="F F F"
C        0.74728645      -0.15472564       0.08451440       0.03713180       0.02569159       0.00463225       0.00035272       0.00002262       0.00008942
C        1.28493052       1.26929563       0.10664901       0.00302780       0.00691061      -0.02952575      -0.00034037       0.00037306      -0.00200016
H        2.36440042       1.20378662      -0.05108309       0.03867296      -0.05489592       0.06410866      -0.00035974       0.00072688      -0.00280879
F       -0.68628237      -0.07843319       0.02070924       0.02166162       0.03861550       0.06306226       0.00017858      -0.00065082       0.00426307
Cl       4.08543190       1.31502274       2.23858869      -0.07832857       0.02851790       0.05475499      -0.00714814      -0.00713821       0.01563490
H        0.82369487       1.79953681      -0.74052862      -0.02485743      -0.00509003      -0.06907904      -0.00107868      -0.00087676      -0.00241773
N        1.24024645      -0.82093104      -1.07380769      -0.01951957      -0.06035544      -0.02554330      -0.00279521      -0.00042387      -0.00096368
H        0.96122897      -0.32529599      -1.91128784      -0.04896808       0.02762924      -0.07412234      -0.00336226       0.00037585      -0.00029923
H        0.87474352      -1.76554121      -1.11106838       0.00062471       0.06537201       0.00257917      -0.00496212       0.00033775      -0.00067267
C        1.08891523      -0.90812694       1.34396326       0.03787371      -0.02454697      -0.01203961       0.00433672       0.00062932      -0.00066251
H        0.82276315      -1.96444661       1.24404511      -0.05492657      -0.02296511       0.05358510       0.00404084       0.00057357       0.00053988
H        2.15603768      -0.80443648       1.55437289       0.04127925      -0.03301349      -0.01827114       0.00478645       0.00075509      -0.00364497
H        0.52780484      -0.47384224       2.17582347       0.06113949       0.03818827      -0.00588776       0.00694779       0.00090035       0.00098989
N        0.94384096       1.94821595       1.35189411       0.00373947      -0.00096739      -0.01829176      -0.00027955       0.00179158      -0.00289331
H        0.96853734       2.94778102       1.18164371      -0.02208025      -0.01753867      -0.02314809       0.00115915       0.00166287      -0.00364592
H        1.73707597       1.77772415       1.97176208       0.00352966      -0.01155210       0.03318637      -0.00147617       0.00094072      -0.00150820
16
Properties=species:S:1:pos:R:3:mp2_forces:R:3:forces:R:3 R1=NH2 R2=CH3 R3=NH2 R4=H lg=F nu=Cl rxn-id=2725 mp2_energy=-21445.125613420958 energy=-21445.289621351727 free_energy=-21445.125615941688 pbc="F F F"
C        0.74917800      -0.15432155       0.08499855       0.03713180       0.02569159       0.00463225       0.00016778       0.00016446      -0.00021943
C        1.28030912       1.27272261       0.09506691       0.00302780       0.00691061      -0.02952575       0.00077191      -0.00002766      -0.00064512
H        2.35927686       1.21145024      -0.07069127       0.03867296      -0.05489592       0.06410866       0.00087117      -0.00067585       0.00007958
F       -0.68539705      -0.08448088       0.04175130       0.02166162       0.03861550       0.06306226       0.00018183       0.00069329       0.00192450
Cl       4.04779261       1.26581517       2.31978594      -0.07832857       0.02851790       0.05475499      -0.00345552      -0.00065301       0.00776650
H        0.81103102       1.79565963      -0.75259726      -0.02485743      -0.00509003      -0.06907904       0.00177069      -0.00017276      -0.00124676
N        1.22807977      -0.82314789      -1.07764394      -0.01951957      -0.06035544      -0.02554330      -0.00196316       0.00038027      -0.00119509
H        0.94825449      -0.32373252      -1.91247859      -0.04896808       0.02762924      -0.07412234      -0.00633316      -0.00086808      -0.00036804
H        0.85213959      -1.76403303      -1.11379372       0.00062471       0.06537201       0.00257917      -0.00015609      -0.00034468       0.00058103
C        1.11187776      -0.90279385       1.34142696       0.03787371      -0.02454697      -0.01203961       0.00181196      -0.00007535      -0.00084004
H        0.84453042      -1.95959631       1.24899660      -0.05492657      -0.02296511       0.05358510       0.00182404      -0.00008615      -0.00072095
H        2.18123437      -0.79773276       1.53627022       0.04127925      -0.03301349      -0.01827114       0.00193269       0.00001291      -0.00181868
H        0.56413694      -0.46627241       2.18132940       0.06113949       0.03818827      -0.00588776       0.00275959      -0.00032665      -0.00006184
N        0.94232619       1.95810180       1.33690753       0.00373947      -0.00096739      -0.01829176       0.00011166       0.00065844      -0.00123464
H        0.97613492       2.95721131       1.16397706      -0.02208025      -0.01753867      -0.02314809       0.00031385       0.00054475      -0.00171088
H        1.72975090       1.78073400       1.96288464       0.00352966      -0.01155210       0.03318637      -0.00060923       0.00077608      -0.00029015
16
Properties=species:S:1:pos:R:3:mp2_forces:R:3:forces:R:3 R1=NH2 R2=CH3 R3=NH2 R4=H lg=F nu=Cl rxn-id=2725 mp2_energy=-21445.125613420958 energy=-21445.28911323505 free_energy=-21445.125615941688 pbc="F F F"
C        0.75224758      -0.15160366       0.08042003       0.03713180       0.02569159       0.00463225      -0.00093859       0.00084775       0.00075014
C        1.29893113       1.27015682       0.08366102       0.00302780       0.00691061      -0.02952575      -0.00370422       0.00202120      -0.00026568
H        2.38016804       1.19298254      -0.06413085       0.03867296      -0.05489592       0.06410866      -0.00378676       0.00401548      -0.00349188
F       -0.68162997      -0.06827709       0.07941911       0.02166162       0.03861550       0.06306226      -0.00127879      -0.00145445       0.00342446
Cl       3.98138231       1.26751383       2.47081831      -0.07832857       0.02851790       0.05475499       0.00060721      -0.00592717      -0.00470662
H        0.85397267       1.79147655      -0.77736841      -0.02485743      -0.00509003      -0.06907904      -0.00754814       0.00228450       0.00134432
N        1.18699707      -0.81460943      -1.10308165      -0.01951957      -0.06035544      -0.02554330       0.00205823      -0.00347280       0.00444962
H        0.81479337      -0.34049137      -1.91861019      -0.04896808       0.02762924      -0.07412234       0.02079087       0.00373192      -0.00636526
H        0.84869450      -1.77007953      -1.10403800       0.00062471       0.06537201       0.00257917      -0.00479616      -0.00498282       0.00638838
C        1.14595898      -0.90612275       1.32424453       0.03787371      -0.02454697      -0.01203961      -0.00015525       0.00016699      -0.00033963
H        0.88218676      -1.96374124       1.23220214      -0.05492657      -0.02296511       0.05358510      -0.00433963       0.00086176      -0.00074297
H        2.21690623      -0.79680373       1.50298807       0.04127925      -0.03301349      -0.01827114       0.00083055      -0.00336168      -0.00387236
H        0.61350581      -0.47708459       2.17853218       0.06113949       0.03818827      -0.00588776       0.00300139       0.00127081       0.00118886
N        0.94582918       1.96947620       1.31301405       0.00373947      -0.00096739      -0.01829176      -0.00129369       0.00196649       0.00073866
H        0.98188007       2.96608481       1.12985593      -0.02208025      -0.01753867      -0.02314809       0.00146430       0.00240244       0.00164530
H        1.71883215       1.79670620       1.95826411       0.00352966      -0.01155210       0.03318637      -0.00091130      -0.00037042      -0.00014536
16
Properties=species:S:1:pos:R:3:mp2_forces:R:3:forces:R:3 R1=NH2 R2=CH3 R3=NH2 R4=H lg=F nu=Cl rxn-id=2725 mp2_energy=-21445.125613420958 energy=-21445.12950799043 free_energy=-21445.125615941688 pbc="F F F"
C        0.77225693      -0.16640592       0.06125337       0.03713180       0.02569159       0.00463225      -0.03414192       0.04746367       0.01083670
C        1.38843766       1.22709577       0.07561775       0.00302780       0.00691061      -0.02952575      -0.03442485       0.04113161       0.00554098
H        2.47263695       1.09606049       0.00219064       0.03867296      -0.05489592       0.06410866      -0.03775635      -0.00744998      -0.01535809
F       -0.65354154      -0.02289426       0.04983790       0.02166162       0.03861550       0.06306226      -0.01096868      -0.00431039       0.29978985
Cl       3.90209816       1.39144959       2.71604506      -0.07832857       0.02851790       0.05475499      -0.00553748      -0.02970821      -0.03286484
H        1.03765956       1.74192916      -0.82715885      -0.02485743      -0.00509003      -0.06907904      -0.02784215       0.06562692       0.01272744
N        1.10520533      -0.73961756      -1.21384352      -0.01951957      -0.06035544      -0.02554330      -0.17681927       0.19054497      -0.16294118
H        0.28556410      -0.42519401      -1.79873619      -0.04896808       0.02762924      -0.07412234       0.25953650       0.20165039      -0.23151170
H        0.93603472      -1.68004832      -1.22235230       0.00062471       0.06537201       0.00257917       0.16396217      -0.56172729       0.32462023
C        1.18083600      -0.91182618       1.31459969       0.03787371      -0.02454697      -0.01203961      -0.02376429      -0.00246569      -0.05803657
H        1.00546971      -1.98483380       1.23193580      -0.05492657      -0.02296511       0.05358510      -0.05637782       0.00271853      -0.08157377
H        2.23383750      -0.72668428       1.54714629       0.04127925      -0.03301349      -0.01827114      -0.02030447      -0.02509093      -0.08522168
H        0.60043963      -0.51212573       2.15241498       0.06113949       0.03818827      -0.00588776      -0.00861698      -0.01716744      -0.02462277
N        0.97918645       1.93876505       1.27581868       0.00373947      -0.00096739      -0.01829176      -0.00784725       0.03981559       0.01582727
H        0.96159864       2.92469444       1.06750565      -0.02208025      -0.01753867      -0.02314809       0.02363348       0.04485836       0.01919095
H        1.73293611       1.81521914       1.95391537       0.00352966      -0.01155210       0.03318637      -0.00273063       0.01410987       0.00359719
16
Properties=species:S:1:pos:R:3:mp2_forces:R:3:forces:R:3 R1=NH2 R2=CH3 R3=NH2 R4=H lg=F nu=Cl rxn-id=2725 mp2_energy=-21445.125613420958 energy=-21444.142099246947 free_energy=-21445.125615941688 pbc="F F F"
C        0.81945081      -0.23361646       0.04535631       0.03713180       0.02569159       0.00463225      -0.58237708       0.17605146      -0.12305392
C        1.44045890       1.16647160       0.06624646       0.00302780       0.00691061      -0.02952575      -0.09579444       0.04143440      -0.02847394
H        2.52911363       1.10301172       0.02186509       0.03867296      -0.05489592       0.06410866      -0.09641192      -0.11616170       0.00845246
F       -0.63837643      -0.00328070      -0.37617050       0.02166162       0.03861550       0.06306226       0.98783751       0.10163507       1.83172934
Cl       3.90082407       1.43554347       2.78188938      -0.07832857       0.02851790       0.05475499      -0.01388269      -0.01450537      -0.02971051
H        1.07976191       1.64478036      -0.84715695      -0.02485743      -0.00509003      -0.06907904       0.01992450       0.10422965      -0.03920021
N        1.34498974      -1.00167969      -0.99124425      -0.01951957      -0.06035544      -0.02554330      -0.19795868       0.02227554      -0.07933616
H       -0.10059682      -0.71282072      -1.46725552      -0.04896808       0.02762924      -0.07412234       0.78725580      -0.58368400      -0.94940305
H        0.71322469      -0.89127065      -1.68556198       0.00062471       0.06537201       0.00257917      -0.11664180      -0.06311688      -0.21247370
C        1.21660365      -0.90790056       1.39633389       0.03787371      -0.02454697      -0.01203961      -0.24717707       0.07169445      -0.09375510
H        1.09128993      -1.98924181       1.35186271      -0.05492657      -0.02296511       0.05358510      -0.14966520       0.05552594      -0.09746148
H        2.26600861      -0.68876957       1.66355038       0.04127925      -0.03301349      -0.01827114      -0.18841088       0.08052486      -0.22319955
H        0.62023945      -0.48666306       2.18992639       0.06113949       0.03818827      -0.00588776      -0.09819120      -0.01196822       0.05543658
N        0.99236130       1.87917384       1.25160730       0.00373947      -0.00096739      -0.01829176      -0.02932014       0.06915407      -0.01343210
H        0.92658505       2.85712173       1.03716858      -0.02208025      -0.01753867      -0.02314809       0.04396004       0.06826001       0.01207483
H        1.73871740       1.79472407       1.94777304       0.00352966      -0.01155210       0.03318637      -0.02314675      -0.00134928      -0.01819349
16
Properties=species:S:1:pos:R:3:mp2_forces:R:3:forces:R:3 R1=NH2 R2=CH3 R3=NH2 R4=H lg=F nu=Cl rxn-id=2725 mp2_energy=-21445.125613420958 energy=-21445.790168943175 free_energy=-21445.125615941688 pbc="F F F"
C        1.16770381      -0.34033298       0.11685226       0.03713180       0.02569159       0.00463225       0.00352001      -0.00723324       0.00575114
C        1.49815916       1.13906747       0.08198437       0.00302780       0.00691061      -0.02952575      -0.00841897      -0.00679004      -0.00027850
H        2.58671953       1.17110406       0.01450689       0.03867296      -0.05489592       0.06410866      -0.00967995      -0.00135370      -0.00938406
F       -1.24129477      -0.04848206      -1.49642128       0.02166162       0.03861550       0.06306226       0.20165662      -0.05639139       0.15520944
Cl       3.90603394       1.44577189       2.80640596      -0.07832857       0.02851790       0.05475499       0.00002416       0.00571638      -0.00516434
H        1.06665805       1.57941178      -0.82460001      -0.02485743      -0.00509003      -0.06907904      -0.01758760      -0.01192043       0.00268315
N        1.46155953      -1.01987413      -0.94065581      -0.01951957      -0.06035544      -0.02554330      -0.00499851      -0.01316810       0.00675445
H       -0.57689850      -0.35563107      -0.88753018      -0.04896808       0.02762924      -0.07412234      -0.17532810       0.11473728      -0.17655169
H        0.78498950      -0.85163708      -1.55625977       0.00062471       0.06537201       0.00257917      -0.00134094      -0.00176116       0.00200023
C        1.37008614      -0.95247819       1.45477947       0.03787371      -0.02454697      -0.01203961       0.00275318      -0.00224844       0.00342165
H        1.18625033      -2.02395022       1.41532719      -0.05492657      -0.02296511       0.05358510       0.00839448      -0.00380791       0.01078963
H        2.38493843      -0.73853733       1.79712320       0.04127925      -0.03301349      -0.01827114       0.00596514       0.00050580       0.00212909
H        0.68706969      -0.47894628       2.15863106       0.06113949       0.03818827      -0.00588776       0.00649292      -0.00235304       0.00635154
N        1.00971406       1.83390843       1.25917278       0.00373947      -0.00096739      -0.01829176      -0.00235701      -0.00617547       0.00096263
H        0.89555963       2.81168278       1.02924954      -0.02208025      -0.01753867      -0.02314809      -0.01143937      -0.00782574      -0.00023479
H        1.75340735       1.79450649       1.95762469       0.00352966      -0.01155210       0.03318637       0.00234394       0.00006919      -0.00443957
16
Properties=species:S:1:pos:R:3:mp2_forces:R:3:forces:R:3 R1=NH2 R2=CH3 R3=NH2 R4=H lg=F nu=Cl rxn-id=2725 mp2_energy=-21445.125613420958 energy=-21445.75848742107 free_energy=-21445.125615941688 pbc="F F F"