12
Properties=species:S:1:pos:R:3:mp2_forces:R:3:forces:R:3 R1=H R2=NO2 R3=H R4=CN lg=Cl nu=Cl rxn-id=218 mp2_energy=-35230.14790299861 energy=-35230.14790299861 free_energy=-35230.14790299861 pbc="F F F"
C        0.60579293      -0.03511057       0.01840452       0.02835449      -0.04891846      -0.00345574       0.02835449      -0.04891846      -0.00345574
C        0.93563005       1.43840328      -0.03584747       0.01589056      -0.00403498       0.01718756       0.01589056      -0.00403498       0.01718756
H        2.03110758       1.49507448      -0.01297173       0.03497137      -0.00426617       0.00473717       0.03497137      -0.00426617       0.00473717
Cl      -1.15901583      -0.31089501       0.00734872      -0.00775169      -0.03159494       0.02146657      -0.00775169      -0.03159494       0.02146657
Cl       3.77961519       0.01332198      -0.54441339      -0.00729725      -0.01843690      -0.04219158      -0.00729725      -0.01843690      -0.04219158
H        1.05269581      -0.59357487      -0.79677425       0.08440454      -0.01381919      -0.00744645       0.08440454      -0.01381919      -0.00744645
H        0.50631419       1.95228854       0.82443306      -0.01462223       0.00695282       0.01787745      -0.01462223       0.00695282       0.01787745
N        1.13457022      -0.65997431       1.28731726      -0.02492708      -0.02307291      -0.02243525      -0.02492708      -0.02307291      -0.02243525
O        1.29876441       0.07720451       2.25319106      -0.02378417       0.02875009       0.03419690      -0.02378417       0.02875009       0.03419690
O        1.29786885      -1.87233326       1.26401827      -0.05488666       0.07043507      -0.01940900      -0.05488666       0.07043507      -0.01940900
C        0.44892966       2.03802400      -1.27145051      -0.01189684       0.06474162      -0.02192868      -0.01189684       0.06474162      -0.02192868
N        0.06184544       2.55536978      -2.25140797      -0.01845506      -0.02673606       0.02140105      -0.01845506      -0.02673606       0.02140105
12
Properties=species:S:1:pos:R:3:mp2_forces:R:3:forces:R:3 R1=H R2=NO2 R3=H R4=CN lg=Cl nu=Cl rxn-id=218 mp2_energy=-35230.14790299861 energy=-35230.15323472924 free_energy=-35230.14790299861 pbc="F F F"
C        0.63013221      -0.03769511       0.02118203       0.02835449      -0.04891846      -0.00345574       0.01065590       0.00028032      -0.00586456
C        0.92678904       1.44675645      -0.00947998       0.01589056      -0.00403498       0.01718756       0.00571851      -0.00407176      -0.00031535
H        2.01580516       1.53772680       0.06373232       0.03497137      -0.00426617       0.00473717       0.00571441      -0.00154012      -0.00945044
Cl      -1.12964749      -0.34614685      -0.02394185      -0.00775169      -0.03159494       0.02146657       0.00637498      -0.00492818      -0.02138030
Cl       3.71933082      -0.02607775      -0.69874936      -0.00729725      -0.01843690      -0.04219158       0.00568168      -0.00158174      -0.01890477
H        1.11889491      -0.57880172      -0.78363006       0.08440454      -0.01381919      -0.00744645       0.01670110       0.00046939       0.00932469
H        0.44023145       1.94105370       0.83185620      -0.01462223       0.00695282       0.01787745       0.01314524      -0.00106895       0.00407240
N        1.12768605      -0.65173406       1.30168262      -0.02492708      -0.02307291      -0.02243525      -0.00891214       0.00150236       0.00585478
O        1.29843635       0.09715052       2.25923497      -0.02378417       0.02875009       0.03419690      -0.01460054       0.00548139       0.00658261
O        1.26052629      -1.86711837       1.30106401      -0.05488666       0.07043507      -0.01940900      -0.01541743      -0.00035873       0.01445003
C        0.47707209       2.04111895      -1.26287395      -0.01189684       0.06474162      -0.02192868      -0.00633474       0.00210141       0.00491932
N        0.10886163       2.54156598      -2.25822939      -0.01845506      -0.02673606       0.02140105      -0.01872697       0.00371462       0.01071159
12
Properties=species:S:1:pos:R:3:mp2_forces:R:3:forces:R:3 R1=H R2=NO2 R3=H R4=CN lg=Cl nu=Cl rxn-id=218 mp2_energy=-35230.14790299861 energy=-35230.14684535083 free_energy=-35230.14790299861 pbc="F F F"
C        0.62632673      -0.03590568       0.02865939       0.02835449      -0.04891846      -0.00345574       0.01508319       0.00261734      -0.01097056
C        0.90840189       1.45201384       0.00675630       0.01589056      -0.00403498       0.01718756       0.00725745      -0.00828015      -0.00088877
H        1.98992062       1.56218626       0.12768517       0.03497137      -0.00426617       0.00473717       0.01035117      -0.00605558      -0.01670084
Cl      -1.13160944      -0.35634174      -0.00207834      -0.00775169      -0.03159494       0.02146657       0.00508909      -0.00336176      -0.02941787
Cl       3.66944062      -0.03614582      -0.75360827      -0.00729725      -0.01843690      -0.04219158       0.01474504       0.00020863      -0.01822741
H        1.11182177      -0.56642969      -0.78537686       0.08440454      -0.01381919      -0.00744645       0.01788312       0.00228023       0.01422086
H        0.37662845       1.94285037       0.82289585      -0.01462223       0.00695282       0.01787745       0.02249753       0.00127593       0.00732174
N        1.14319746      -0.65276291       1.29967478      -0.02492708      -0.02307291      -0.02243525      -0.01227982       0.00133221       0.00691840
O        1.33102448       0.09511084       2.25464266      -0.02378417       0.02875009       0.03419690      -0.02011365       0.00618185       0.00969813
O        1.27638557      -1.86799060       1.29476890      -0.05488666       0.07043507      -0.01940900      -0.01887543      -0.00182362       0.01783116
C        0.50981729       2.03487022      -1.26912103      -0.01189684       0.06474162      -0.02192868      -0.01114546       0.00288663       0.00558678
N        0.18276306       2.52634347      -2.28305097      -0.01845506      -0.02673606       0.02140105      -0.03049224       0.00273829       0.01462838
12
Properties=species:S:1:pos:R:3:mp2_forces:R:3:forces:R:3 R1=H R2=NO2 R3=H R4=CN lg=Cl nu=Cl rxn-id=218 mp2_energy=-35230.14790299861 energy=-35230.13545384964 free_energy=-35230.14790299861 pbc="F F F"
C        0.62079941      -0.03512348       0.03647759       0.02835449      -0.04891846      -0.00345574       0.01714040       0.00651775      -0.01645644
C        0.89026569       1.45598431       0.01997620       0.01589056      -0.00403498       0.01718756       0.00648241      -0.01203822      -0.00075926
H        1.96138077       1.58554770       0.19048265       0.03497137      -0.00426617       0.00473717       0.01595868      -0.01377840      -0.02509319
Cl      -1.13592581      -0.36408496       0.02993741      -0.00775169      -0.03159494       0.02146657       0.00106717      -0.00395797      -0.03953806
Cl       3.61842266      -0.03699716      -0.80074529      -0.00729725      -0.01843690      -0.04219158       0.02825333       0.00177897      -0.01908352
H        1.09679946      -0.55782619      -0.78846139       0.08440454      -0.01381919      -0.00744645       0.01909519       0.00586177       0.02004914
H        0.31323922       1.94401156       0.80714925      -0.01462223       0.00695282       0.01787745       0.03344756       0.00556498       0.01253457
N        1.16042402      -0.65505263       1.29598385      -0.02492708      -0.02307291      -0.02243525      -0.01480834       0.00166940       0.00885412
O        1.36540584       0.09087494       2.24871481      -0.02378417       0.02875009       0.03419690      -0.02604919       0.00691038       0.01361459
O        1.29510347      -1.87004626       1.28553631      -0.05488666       0.07043507      -0.01940900      -0.02181787      -0.00259748       0.02074524
C        0.54624890       2.02787715      -1.27668139      -0.01189684       0.06474162      -0.02192868      -0.01626119       0.00331505       0.00757156
N        0.26195486       2.51263359      -2.30652244      -0.01845506      -0.02673606       0.02140105      -0.04250815       0.00075377       0.01756126
12
Properties=species:S:1:pos:R:3:mp2_forces:R:3:forces:R:3 R1=H R2=NO2 R3=H R4=CN lg=Cl nu=Cl rxn-id=218 mp2_energy=-35230.14790299861 energy=-35230.11963731752 free_energy=-35230.14790299861 pbc="F F F"
C        0.61637483      -0.03439400       0.04080834       0.02835449      -0.04891846      -0.00345574       0.01327478       0.01316615      -0.01807381
C        0.87677437       1.45957398       0.02620942       0.01589056      -0.00403498       0.01718756      -0.00129543      -0.01350548       0.00042870
H        1.93576618       1.61017416       0.24030092       0.03497137      -0.00426617       0.00473717       0.01792334      -0.03261756      -0.03542215
Cl      -1.14072162      -0.36107180       0.07294907      -0.00775169      -0.03159494       0.02146657      -0.01037377      -0.01324891      -0.05125419
Cl       3.57393887      -0.03802779      -0.80821272      -0.00729725      -0.01843690      -0.04219158       0.05176910       0.00358207      -0.02605066
H        1.07223773      -0.55444530      -0.79736639       0.08440454      -0.01381919      -0.00744645       0.02195367       0.01463555       0.02974911
H        0.25975676       1.94324403       0.78607865      -0.01462223       0.00695282       0.01787745       0.04615687       0.01586386       0.01822407
N        1.18094285      -0.65943214       1.28639425      -0.02492708      -0.02307291      -0.02243525      -0.01656545       0.00448141       0.01081353
O        1.40012798       0.08260100       2.23859270      -0.02378417       0.02875009       0.03419690      -0.02958909       0.00724720       0.01691487
O        1.31744463      -1.87422070       1.26845521      -0.05488666       0.07043507      -0.01940900      -0.02435537       0.00026706       0.02113636
C        0.57703795       2.02185603      -1.28605820      -0.01189684       0.06474162      -0.02192868      -0.02095620       0.00365359       0.01264001
N        0.32443796       2.50194108      -2.32630368      -0.01845506      -0.02673606       0.02140105      -0.04794244      -0.00352495       0.02089417
12
Properties=species:S:1:pos:R:3:mp2_forces:R:3:forces:R:3 R1=H R2=NO2 R3=H R4=CN lg=Cl nu=Cl rxn-id=218 mp2_energy=-35230.14790299861 energy=-35230.10586829159 free_energy=-35230.14790299861 pbc="F F F"
C        0.61720604      -0.03296774       0.03834852       0.02835449      -0.04891846      -0.00345574      -0.00030609       0.01833254      -0.00918304
C        0.87422242       1.46296257       0.02386155       0.01589056      -0.00403498       0.01718756      -0.01425774      -0.01068091       0.00398772
H        1.92529087       1.63486647       0.25978706       0.03497137      -0.00426617       0.00473717       0.00642996      -0.07170325      -0.04472776
Cl      -1.14248008      -0.34897333       0.10794538      -0.00775169      -0.03159494       0.02146657      -0.01463828      -0.02253218      -0.05952907
Cl       3.54866553      -0.05112984      -0.76751972      -0.00729725      -0.01843690      -0.04219158       0.08559743       0.00618147      -0.04031389
H        1.04952557      -0.55565532      -0.81052291       0.08440454      -0.01381919      -0.00744645       0.02934352       0.02627580       0.04058297
H        0.23519546       1.93870477       0.77069994      -0.01462223       0.00695282       0.01787745       0.05354909       0.03436877       0.02184967
N        1.19907479      -0.66397381       1.27345486      -0.02492708      -0.02307291      -0.02243525      -0.02295852       0.01015131       0.01041931
O        1.42054444       0.07369819       2.22814133      -0.02378417       0.02875009       0.03419690      -0.02763351       0.00567915       0.01434577
O        1.33736647      -1.87865867       1.24864756      -0.05488666       0.07043507      -0.01940900      -0.02580851       0.00978010       0.01872216
C        0.58838110       2.02038547      -1.29422175      -0.01189684       0.06474162      -0.02192868      -0.02726918       0.00346319       0.01936770
N        0.34112589       2.49853980      -2.33677425      -0.01845506      -0.02673606       0.02140105      -0.04204816      -0.00931600       0.02447848
12
Properties=species:S:1:pos:R:3:mp2_forces:R:3:forces:R:3 R1=H R2=NO2 R3=H R4=CN lg=Cl nu=Cl rxn-id=218 mp2_energy=-35230.14790299861 energy=-35230.091560128145 free_energy=-35230.14790299861 pbc="F F F"
C        0.62290680      -0.03394238       0.03463807       0.02835449      -0.04891846      -0.00345574      -0.03159190       0.02065658       0.00536665
C        0.87568967       1.46432910       0.02114992       0.01589056      -0.00403498       0.01718756      -0.02753650      -0.00913970       0.01042008
H        1.91818121       1.66130054       0.27413547       0.03497137      -0.00426617       0.00473717       0.00388515      -0.12099092      -0.04814353
Cl      -1.13972757      -0.34039156       0.13035390      -0.00775169      -0.03159494       0.02146657      -0.01485769      -0.02903697      -0.06338096
Cl       3.52097959      -0.05988520      -0.74467874      -0.00729725      -0.01843690      -0.04219158       0.13049432       0.00590038      -0.05527054
H        1.03527247      -0.56231361      -0.82063347       0.08440454      -0.01381919      -0.00744645       0.04392641       0.04609455       0.05188966
H        0.21902228       1.92835454       0.75887362      -0.01462223       0.00695282       0.01787745       0.04952655       0.06098028       0.02855306
N        1.21363704      -0.66659385       1.26516884      -0.02492708      -0.02307291      -0.02243525      -0.04363043       0.01192212       0.01423977
O        1.43003032       0.06883412       2.22259856      -0.02378417       0.02875009       0.03419690      -0.01846508       0.00813567       0.00673653
O        1.34755732      -1.88185473       1.24081590      -0.05488666       0.07043507      -0.01940900      -0.01859933       0.01651304       0.01021336
C        0.59803799       2.02050729      -1.29898875      -0.01189684       0.06474162      -0.02192868      -0.03572173       0.00058205       0.01733993
N        0.35253137       2.49945429      -2.34158574      -0.01845506      -0.02673606       0.02140105      -0.03742978      -0.01161708       0.02203601
12
Properties=species:S:1:pos:R:3:mp2_forces:R:3:forces:R:3 R1=H R2=NO2 R3=H R4=CN lg=Cl nu=Cl rxn-id=218 mp2_energy=-35230.14790299861 energy=-35229.94965020339 free_energy=-35230.14790299861 pbc="F F F"
C        0.67159692      -0.04359220       0.01707708       0.02835449      -0.04891846      -0.00345574      -0.54496145      -0.00272578       0.08964688
C        0.89823290       1.46940403       0.01070610       0.01589056      -0.00403498       0.01718756      -0.14313669      -0.03262743       0.02896828
H        1.88815418       1.79504034       0.33961173       0.03497137      -0.00426617       0.00473717       0.00790046      -0.32320731      -0.05599146
Cl      -1.12403728      -0.30807864       0.20989388      -0.00775169      -0.03159494       0.02146657       0.14416391      -0.02178865      -0.07419877
Cl       3.37446925      -0.07556334      -0.68080224      -0.00729725      -0.01843690      -0.04219158       0.44684473      -0.00341336      -0.14548573
H        0.97079576      -0.60389907      -0.86802274       0.08440454      -0.01381919      -0.00744645       0.17611493       0.15079146       0.14332311
H        0.16006215       1.86484324       0.70663025      -0.01462223       0.00695282       0.01787745       0.03922940       0.20593626       0.05782148
N        1.27267635      -0.67842658       1.24083941      -0.02492708      -0.02307291      -0.02243525      -0.12611550       0.01604323       0.00975052
O        1.45948425       0.05078774       2.21000191      -0.02378417       0.02875009       0.03419690       0.02992337       0.01887217      -0.04306848
O        1.37347751      -1.89736395       1.22852935      -0.05488666       0.07043507      -0.01940900       0.02639702       0.03806620      -0.03042735
C        0.64175423       2.02213932      -1.31400706      -0.01189684       0.06474162      -0.02192868      -0.02917448      -0.02664021       0.00056065
N        0.40745229       2.50250764      -2.35861010      -0.01845506      -0.02673606       0.02140105      -0.02718572      -0.01930659       0.01910088
12
Properties=species:S:1:pos:R:3:mp2_forces:R:3:forces:R:3 R1=H R2=NO2 R3=H R4=CN lg=Cl nu=Cl rxn-id=218 mp2_energy=-35230.14790299861 energy=-35229.638145053104 free_energy=-35230.14790299861 pbc="F F F"
C        0.78797274      -0.03855080      -0.00310294       0.02835449      -0.04891846      -0.00345574      -1.99634635      -0.16361455       0.27807107
C        0.92872784       1.47843401       0.00539119       0.01589056      -0.00403498       0.01718756      -0.10639647      -0.06944710       0.00693859
H        1.88965306       1.86575137       0.34993070       0.03497137      -0.00426617       0.00473717       0.01600946      -0.28249033      -0.03040536
Cl      -1.15832582      -0.30512988       0.22519017      -0.00775169      -0.03159494       0.02146657       0.88382818       0.11808231      -0.11899432
Cl       3.28212554      -0.07301861      -0.64869095      -0.00729725      -0.01843690      -0.04219158       0.60302015      -0.01665476      -0.17357188
H        0.93202469      -0.63443822      -0.89414979       0.08440454      -0.01381919      -0.00744645       0.45403204       0.16103104       0.08708862
H        0.15479648       1.81775760       0.69595235      -0.01462223       0.00695282       0.01787745       0.06284918       0.23647061       0.03378176
N        1.29847319      -0.68444714       1.23957675      -0.02492708      -0.02307291      -0.02243525      -0.01927827       0.02593417      -0.02597214
O        1.45163877       0.04609566       2.21580498      -0.02378417       0.02875009       0.03419690       0.06049329       0.00161699      -0.05509660
O        1.36739939      -1.90595883       1.23458732      -0.05488666       0.07043507      -0.01940900       0.05618065       0.03747683      -0.02750118
C        0.64776324       2.02599782      -1.31682313      -0.01189684       0.06474162      -0.02192868       0.01086967      -0.02418560      -0.00088051
N        0.41186938       2.50530556      -2.36181909      -0.01845506      -0.02673606       0.02140105      -0.02526153      -0.02421961       0.02654194
12
Properties=species:S:1:pos:R:3:mp2_forces:R:3:forces:R:3 R1=H R2=NO2 R3=H R4=CN lg=Cl nu=Cl rxn-id=218 mp2_energy=-35230.14790299861 energy=-35229.35644218578 free_energy=-35230.14790299861 pbc="F F F"
C        0.89616449      -0.02857053      -0.01910805       0.02835449      -0.04891846      -0.00345574      -1.43299458      -0.08737104       0.22413813
C        0.93414128       1.48283259       0.00544757       0.01589056      -0.00403498       0.01718756      -0.01308157      -0.01514651       0.00268684
H        1.88754562       1.88033709       0.35184691       0.03497137      -0.00426617       0.00473717       0.02281168      -0.14090257      -0.01764771
Cl      -1.20515242      -0.31114034       0.23233607      -0.00775169      -0.03159494       0.02146657       0.50938763       0.07425501      -0.06009573
Cl       3.24975054      -0.07188087      -0.63939157      -0.00729725      -0.01843690      -0.04219158       0.36684559      -0.00976687      -0.09840263
H        0.90647398      -0.64335855      -0.89895127       0.08440454      -0.01381919      -0.00744645       0.36986709       0.06116375      -0.01636332
H        0.15090401       1.80527352       0.69374752      -0.01462223       0.00695282       0.01787745       0.04112711       0.13144290       0.00783282
N        1.29972162      -0.68598025       1.24098521      -0.02492708      -0.02307291      -0.02243525       0.05588905       0.00701733      -0.01756911
O        1.44858133       0.04522639       2.21851283      -0.02378417       0.02875009       0.03419690       0.04142290      -0.00753717      -0.02700465
O        1.36448133      -1.90771847       1.23623581      -0.05488666       0.07043507      -0.01940900       0.03863254       0.01460777      -0.00909747
C        0.64743934       2.02682254      -1.31710286      -0.01189684       0.06474162      -0.02192868       0.01345663      -0.01198290      -0.00610721
N        0.41406735       2.50595544      -2.36271061      -0.01845506      -0.02673606       0.02140105      -0.01336409      -0.01577970       0.01763004
12
Properties=species:S:1:pos:R:3:mp2_forces:R:3:forces:R:3 R1=H R2=NO2 R3=H R4=CN lg=Cl nu=Cl rxn-id=218 mp2_energy=-35230.14790299861 energy=-35229.247654400424 free_energy=-35230.14790299861 pbc="F F F"
C        1.00935021      -0.02026435      -0.03858386       0.02835449      -0.04891846      -0.00345574      -0.00498693       0.01738875      -0.02237902
C        0.93495592       1.48492036       0.00584344       0.01589056      -0.00403498       0.01718756       0.00067598       0.01149640       0.00700937
H        1.88475712       1.89097981       0.35330735       0.03497137      -0.00426617       0.00473717      -0.00710148      -0.00249616      -0.00167754
Cl      -1.24515931      -0.31660734       0.23772374      -0.00775169      -0.03159494       0.02146657      -0.00601643       0.00414722       0.00613544
Cl       3.22126639      -0.07075015      -0.63152113      -0.00729725      -0.01843690      -0.04219158       0.00717274       0.00489393       0.00347873
H        0.87674592      -0.64814682      -0.89725952       0.08440454      -0.01381919      -0.00744645       0.00105343       0.00178730       0.00643556
H        0.14770746       1.79502960       0.69272534      -0.01462223       0.00695282       0.01787745       0.00609459      -0.00183335      -0.00429573
N        1.29537933      -0.68692570       1.24260964      -0.02492708      -0.02307291      -0.02243525       0.00104715      -0.00566459       0.00377805
O        1.44540963       0.04475726       2.22007294      -0.02378417       0.02875009       0.03419690      -0.00087181      -0.01292136      -0.00810120
O        1.36154885      -1.90857464       1.23726158      -0.05488666       0.07043507      -0.01940900       0.00061949       0.00306318       0.00398256
C        0.64648064       2.02711174      -1.31709086      -0.01189684       0.06474162      -0.02192868      -0.00073181      -0.00803406      -0.00616311
N        0.41567635       2.50626878      -2.36324107      -0.01845506      -0.02673606       0.02140105       0.00304507      -0.01182724       0.01179689
12
Properties=species:S:1:pos:R:3:mp2_forces:R:3:forces:R:3 R1=H R2=NO2 R3=H R4=CN lg=Cl nu=Cl rxn-id=218 mp2_energy=-35230.14790299861 energy=-35229.35653881531 free_energy=-35230.14790299861 pbc="F F F"
C        1.12180506      -0.01614499      -0.06302730       0.02835449      -0.04891846      -0.00345574       1.41372931       0.06936820      -0.32998187
C        0.93578222       1.48292029       0.00512953       0.01589056      -0.00403498       0.01718756       0.01458653      -0.01371028      -0.00272487
H        1.88110768       1.90085956       0.35566386       0.03497137      -0.00426617       0.00473717      -0.04899365       0.12661631       0.02541278
Cl      -1.27423045      -0.32090458       0.24105315      -0.00775169      -0.03159494       0.02146657      -0.37390721      -0.05053472       0.04584535
Cl       3.18179286      -0.06965477      -0.62144214      -0.00729725      -0.01843690      -0.04219158      -0.49999413       0.01876788       0.13624322
H        0.84822187      -0.64656495      -0.88760442       0.08440454      -0.01381919      -0.00744645      -0.35342234       0.02134775       0.12453367
H        0.14571992       1.78413294       0.69219494      -0.01462223       0.00695282       0.01787745      -0.01273587      -0.14282477      -0.01080420
N        1.29067396      -0.68647695       1.24274328      -0.02492708      -0.02307291      -0.02243525      -0.05875669       0.00073389       0.00470360
O        1.44185469       0.04485149       2.21982351      -0.02378417       0.02875009       0.03419690      -0.04746411      -0.01244736      -0.00968843
O        1.35837185      -1.90805440       1.23741975      -0.05488666       0.07043507      -0.01940900      -0.04051319       0.01028755       0.00628776
C        0.64562630       2.02670311      -1.31675127      -0.01189684       0.06474162      -0.02192868      -0.01330380      -0.01372748      -0.00080953
N        0.41739253       2.50613180      -2.36335533      -0.01845506      -0.02673606       0.02140105       0.02077515      -0.01387699       0.01098251
12
Properties=species:S:1:pos:R:3:mp2_forces:R:3:forces:R:3 R1=H R2=NO2 R3=H R4=CN lg=Cl nu=Cl rxn-id=218 mp2_energy=-35230.14790299861 energy=-35229.638363709535 free_energy=-35230.14790299861 pbc="F F F"
C        1.22857396      -0.01428752      -0.08886144       0.02835449      -0.04891846      -0.00345574       1.95937490       0.05426678      -0.49179614
C        0.94122576       1.47911637       0.00296085       0.01589056      -0.00403498       0.01718756       0.10797205      -0.05773953      -0.03485500
H        1.87702099       1.91293370       0.35942900       0.03497137      -0.00426617       0.00473717      -0.07041861       0.22928682       0.05974587
Cl      -1.30744839      -0.32565423       0.24451430      -0.00775169      -0.03159494       0.02146657      -0.61876813      -0.08388048       0.06429823
Cl       3.13530263      -0.06877570      -0.61043242      -0.00729725      -0.01843690      -0.04219158      -0.87105420       0.02158153       0.22233815
H        0.82552978      -0.64029204      -0.87339332       0.08440454      -0.01381919      -0.00744645      -0.40246120       0.11384677       0.25393205
H        0.14460432       1.76936839       0.69090477      -0.01462223       0.00695282       0.01787745       0.00381401      -0.28305043      -0.02818017
N        1.29114804      -0.68484829       1.24099666      -0.02492708      -0.02307291      -0.02243525       0.00553094       0.02730644      -0.03086425
O        1.43793100       0.04533048       2.21847411      -0.02378417       0.02875009       0.03419690      -0.07646712      -0.00593807      -0.02837932
O        1.35487680      -1.90664745       1.23700999      -0.05488666       0.07043507      -0.01940900      -0.06595956       0.03081319      -0.00375099
C        0.64552752       2.02583075      -1.31639090      -0.01189684       0.06474162      -0.02192868      -0.00754962      -0.02567480       0.00289901
N        0.41982608       2.50572410      -2.36336403      -0.01845506      -0.02673606       0.02140105       0.03598654      -0.02081822       0.01461257
12
Properties=species:S:1:pos:R:3:mp2_forces:R:3:forces:R:3 R1=H R2=NO2 R3=H R4=CN lg=Cl nu=Cl rxn-id=218 mp2_energy=-35230.14790299861 energy=-35229.94954725857 free_energy=-35230.14790299861 pbc="F F F"
C        1.34380507      -0.00655746      -0.11375722       0.02835449      -0.04891846      -0.00345574       0.53458351       0.05669607      -0.12036485
C        0.97228080       1.47345225      -0.00372630       0.01589056      -0.00403498       0.01718756       0.14586702      -0.01660387      -0.02722743
H        1.87117363       1.95943526       0.37230381       0.03497137      -0.00426617       0.00473717      -0.03640922       0.20178073       0.07255348
Cl      -1.40437473      -0.33861349       0.24922257      -0.00775169      -0.03159494       0.02146657      -0.46523608      -0.05355890       0.03216265
Cl       3.09830292      -0.07561705      -0.61190209      -0.00729725      -0.01843690      -0.04219158      -0.15785433      -0.03830024      -0.01566209
H        0.79635846      -0.61349777      -0.83400819       0.08440454      -0.01381919      -0.00744645      -0.12448364       0.13394991       0.20159635
H        0.14959353       1.69897116       0.67927349      -0.01462223       0.00695282       0.01787745       0.00587461      -0.32279359      -0.05569326
N        1.31478268      -0.67608100       1.23263785      -0.02492708      -0.02307291      -0.02243525       0.11822789       0.02929193      -0.03767494
O        1.42806715       0.04904821       2.21613683      -0.02378417       0.02875009       0.03419690      -0.04553877       0.01479487      -0.02821287
O        1.34611997      -1.89884226       1.23385706      -0.05488666       0.07043507      -0.01940900      -0.03963486       0.03439328      -0.01764951
C        0.65257594       2.02261332      -1.31611741      -0.01189684       0.06474162      -0.02192868       0.03008892      -0.02355974      -0.01110611
N        0.42543308       2.50348739      -2.36207283      -0.01845506      -0.02673606       0.02140105       0.03451494      -0.01609046       0.00727857
12
Properties=species:S:1:pos:R:3:mp2_forces:R:3:forces:R:3 R1=H R2=NO2 R3=H R4=CN lg=Cl nu=Cl rxn-id=218 mp2_energy=-35230.14790299861 energy=-35230.09123945153 free_energy=-35230.14790299861 pbc="F F F"
C        1.39407673       0.00856239      -0.11544029       0.02835449      -0.04891846      -0.00345574       0.02878730       0.02386198      -0.00651525
C        0.99741871       1.47103565      -0.00248201       0.01589056      -0.00403498       0.01718756       0.03006264      -0.00593920      -0.00085153
H        1.82968466       2.01741646       0.44426973       0.03497137      -0.00426617       0.00473717      -0.04149365       0.05578267       0.04639144
Cl      -1.56484805      -0.33977192       0.24495503      -0.00775169      -0.03159494       0.02146657      -0.14139810      -0.00911177      -0.00222744