13
Properties=species:S:1:pos:R:3:mp2_forces:R:3:forces:R:3 R1=CH3 R2=H R3=CN R4=H lg=F nu=Cl rxn-id=1808 mp2_energy=-20945.00614547083 energy=-20945.006144246046 free_energy=-20945.006144246046 pbc="F F F"
C        0.65847996      -0.06100107      -0.03066187       0.00155003      -0.03462642      -0.00321634       0.00157556      -0.03463279      -0.00322117
C        0.95044619       1.43215589      -0.01166325      -0.01174224      -0.02219890      -0.01152622      -0.01174243      -0.02221485      -0.01152208
H        2.04056856       1.53461114      -0.05083146      -0.00514626      -0.02356470       0.05520905      -0.00514355      -0.02356221       0.05520732
F       -0.72945331      -0.25917941       0.12134304       0.03938789       0.03754787       0.02055332       0.03938576       0.03754587       0.02055340
Cl       3.98414370      -0.10023258       0.49012652       0.03230439       0.03035875      -0.03362230       0.03230641       0.03035780      -0.03362158
H        1.14755498      -0.52932672       0.82094239       0.03534159       0.02451927       0.01786068       0.03533353       0.02452634       0.01784949
H        0.50341577       1.91261135      -0.88779858      -0.01177630      -0.00082586      -0.02027999      -0.01178164      -0.00081912      -0.02028482
C        1.09811849      -0.70104858      -1.33000332      -0.01346621      -0.01135322      -0.01236905      -0.01347032      -0.01134414      -0.01235413
H        0.32461552      -0.54269636      -2.08776346       0.01957606       0.05890481      -0.00475255       0.01957788       0.05890379      -0.00475415
H        2.04740615      -0.27851337      -1.65612870       0.01829279      -0.06193367       0.05083795       0.01828709      -0.06193846       0.05083775
H        1.24898486      -1.77254725      -1.19067058      -0.05786049       0.00139115      -0.04326304      -0.05786202       0.00139165      -0.04326474
C        0.44320664       2.08646555       1.19185830      -0.01412178      -0.02004568      -0.01409239      -0.01412005      -0.02003675      -0.01409237
N        0.03396773       2.61622554       2.15535934      -0.03233949       0.02182660      -0.00133911      -0.03234621       0.02182287      -0.00133292
13
Properties=species:S:1:pos:R:3:mp2_forces:R:3:forces:R:3 R1=CH3 R2=H R3=CN R4=H lg=F nu=Cl rxn-id=1808 mp2_energy=-20945.00614547083 energy=-20945.015959183234 free_energy=-20945.006144246046 pbc="F F F"
C        0.67179063      -0.06688347      -0.04360097       0.00155003      -0.03462642      -0.00321634       0.00627449      -0.00443807       0.00691760
C        0.90125565       1.43665777      -0.04999962      -0.01174224      -0.02219890      -0.01152622       0.00735652      -0.00469890       0.00612171
H        1.97250371       1.60068574      -0.19385232      -0.00514626      -0.02356470       0.05520905       0.01168018      -0.00870068       0.02855742
F       -0.70700926      -0.30058177       0.13577541       0.03938789       0.03754787       0.02055332       0.00931454      -0.00638175       0.02410947
Cl       3.92996004      -0.06254521       0.63368768       0.03230439       0.03035875      -0.03362230       0.04192053       0.02679537      -0.03226972
H        1.19684256      -0.50236046       0.80408819       0.03534159       0.02451927       0.01786068       0.01832514      -0.00581876      -0.00096292
H        0.33676750       1.89355284      -0.87079625      -0.01177630      -0.00082586      -0.02027999       0.02675904      -0.00636513      -0.00849379
C        1.11177844      -0.70887406      -1.33732624      -0.01346621      -0.01135322      -0.01236905      -0.00960201      -0.00044230       0.00040630
H        0.42705681      -0.43071331      -2.14330509       0.01957606       0.05890481      -0.00475255       0.01196891       0.04676931      -0.00415586
H        2.12864864      -0.39381771      -1.56834019       0.01829279      -0.06193367       0.05083795       0.00940332      -0.03950270       0.02149468
H        1.11616559      -1.79552550      -1.23582249      -0.05786049       0.00139115      -0.04326304      -0.06371595      -0.00470117      -0.01863682
C        0.49396331       2.07251198       1.20196992      -0.01412178      -0.02004568      -0.01409239      -0.02212647       0.00057696      -0.00634231
N        0.17173161       2.59541729       2.20163036      -0.03233949       0.02182660      -0.00133911      -0.04755823       0.00690780      -0.01674577
13
Properties=species:S:1:pos:R:3:mp2_forces:R:3:forces:R:3 R1=CH3 R2=H R3=CN R4=H lg=F nu=Cl rxn-id=1808 mp2_energy=-20945.00614547083 energy=-20944.991666371723 free_energy=-20945.006144246046 pbc="F F F"
C        0.66593024      -0.06098001      -0.05132363       0.00155003      -0.03462642      -0.00321634       0.00649007      -0.00481593       0.00768984
C        0.89561347       1.44260692      -0.05568209      -0.01174224      -0.02219890      -0.01152622       0.00546679      -0.00508457       0.00525547
H        1.96234909       1.61087961      -0.22184033      -0.00514626      -0.02356470       0.05520905       0.01143118      -0.01097199       0.03137718
F       -0.71707581      -0.29007397       0.10743291       0.03938789       0.03754787       0.02055332       0.01102370      -0.01140864       0.03151724
Cl       3.87782436      -0.09851893       0.66719573       0.03230439       0.03035875      -0.03362230       0.05741200       0.02443667      -0.02816682
H        1.17610274      -0.49590037       0.80540900       0.03534159       0.02451927       0.01786068       0.02451985      -0.00414939      -0.00265506
H        0.31151844       1.90190228      -0.86122093      -0.01177630      -0.00082586      -0.02027999       0.02870003      -0.00686140      -0.01292381
C        1.12274399      -0.70835469      -1.33780942      -0.01346621      -0.01135322      -0.01236905      -0.01253286       0.00082391      -0.00046582
H        0.40652403      -0.49168152      -2.13515586       0.01957606       0.05890481      -0.00475255       0.00986711       0.05602633      -0.00744605
H        2.11406891      -0.34230956      -1.60017130       0.01829279      -0.06193367       0.05083795       0.01152154      -0.04137110       0.02484840
H        1.19788138      -1.78978969      -1.21148450      -0.05786049       0.00139115      -0.04326304      -0.07345115      -0.00741955      -0.02196040
C        0.51779529       2.07187879       1.20898031      -0.01412178      -0.02004568      -0.01409239      -0.02742636       0.00208820      -0.00806755
N        0.22017912       2.58786527       2.21977848      -0.03233949       0.02182660      -0.00133911      -0.05302190       0.00870747      -0.01900261
13
Properties=species:S:1:pos:R:3:mp2_forces:R:3:forces:R:3 R1=CH3 R2=H R3=CN R4=H lg=F nu=Cl rxn-id=1808 mp2_energy=-20945.00614547083 energy=-20944.969941684147 free_energy=-20945.006144246046 pbc="F F F"
C        0.66549047      -0.05612024      -0.05649114       0.00155003      -0.03462642      -0.00321634       0.00210066      -0.00517698       0.00685118
C        0.89413956       1.44784259      -0.05966753      -0.01174224      -0.02219890      -0.01152622       0.00028564      -0.00531824       0.00391501
H        1.95552581       1.62368679      -0.24634472      -0.00514626      -0.02356470       0.05520905       0.00882355      -0.01616978       0.03645477
F       -0.72102717      -0.27971725       0.08740603       0.03938789       0.03754787       0.02055332       0.00873814      -0.01849165       0.03638493
Cl       3.82242676      -0.12789149       0.69139992       0.03230439       0.03035875      -0.03362230       0.08530333       0.02112495      -0.02026123
H        1.16424617      -0.49125459       0.80679249       0.03534159       0.02451927       0.01786068       0.02512941      -0.00153792      -0.00488045
H        0.29069151       1.90667520      -0.85113452      -0.01177630      -0.00082586      -0.02027999       0.03187731      -0.00396240      -0.01880541
C        1.13272051      -0.70831452      -1.33805871      -0.01346621      -0.01135322      -0.01236905      -0.01639818       0.00204936      -0.00163273
H        0.39339360      -0.53874398      -2.12572661       0.01957606       0.05890481      -0.00475255       0.00903581       0.05888423      -0.01119987
H        2.10204004      -0.30667963      -1.62782028       0.01829279      -0.06193367       0.05083795       0.00914141      -0.04022756       0.02744498
H        1.26001706      -1.78275196      -1.19335035      -0.05786049       0.00139115      -0.04326304      -0.07844038      -0.00608364      -0.02431152
C        0.53789255       2.07054084       1.21459524      -0.01412178      -0.02004568      -0.01409239      -0.03353982       0.00477756      -0.00926879
N        0.25389838       2.58025238       2.23250857      -0.03233949       0.02182660      -0.00133911      -0.05205687       0.01013207      -0.02069086
13
Properties=species:S:1:pos:R:3:mp2_forces:R:3:forces:R:3 R1=CH3 R2=H R3=CN R4=H lg=F nu=Cl rxn-id=1808 mp2_energy=-20945.00614547083 energy=-20944.998240770878 free_energy=-20945.006144246046 pbc="F F F"
C        0.67000899      -0.06193760      -0.04899032       0.00155003      -0.03462642      -0.00321634       0.00456402      -0.00474666       0.00721457
C        0.89967066       1.44157736      -0.05327481      -0.01174224      -0.02219890      -0.01152622       0.00454643      -0.00523594       0.00441786
H        1.96784312       1.61078547      -0.21051873      -0.00514626      -0.02356470       0.05520905       0.01030286      -0.01522184       0.03025622
F       -0.71233320      -0.28936665       0.11561511       0.03938789       0.03754787       0.02055332       0.01051134      -0.01561650       0.03553091
Cl       3.90025276      -0.09634385       0.66396564       0.03230439       0.03035875      -0.03362230       0.04440562       0.02541063      -0.03231773
H        1.18442844      -0.49813189       0.80455691       0.03534159       0.02451927       0.01786068       0.02480259      -0.00235805      -0.00405316
H        0.32193400       1.89864165      -0.86465724      -0.01177630      -0.00082586      -0.02027999       0.03119302      -0.00294965      -0.01318033
C        1.11808770      -0.70828846      -1.33881913      -0.01346621      -0.01135322      -0.01236905      -0.01215451       0.00127161       0.00008421
H        0.40193257      -0.47986942      -2.13300261       0.01957606       0.05890481      -0.00475255       0.01471184       0.05413597      -0.01087526
H        2.11277165      -0.35156155      -1.60186441       0.01829279      -0.06193367       0.05083795       0.01142810      -0.03880083       0.02865091
H        1.18041349      -1.79117400      -1.21788298      -0.05786049       0.00139115      -0.04326304      -0.07013631      -0.00522840      -0.01914201
C        0.50799977       2.07247071       1.20640812      -0.01412178      -0.02004568      -0.01409239      -0.02569248       0.00385432      -0.00499460
N        0.19844528       2.59072235       2.21257283      -0.03233949       0.02182660      -0.00133911      -0.04848252       0.00548533      -0.02159160
13
Properties=species:S:1:pos:R:3:mp2_forces:R:3:forces:R:3 R1=CH3 R2=H R3=CN R4=H lg=F nu=Cl rxn-id=1808 mp2_energy=-20945.00614547083 energy=-20944.98470844595 free_energy=-20945.006144246046 pbc="F F F"
C        0.66679769      -0.05815077      -0.05325541       0.00155003      -0.03462642      -0.00321634       0.00504728      -0.00565378       0.00782217
C        0.89859405       1.44492769      -0.05579854      -0.01174224      -0.02219890      -0.01152622       0.00365717      -0.00557358       0.00407841
H        1.96510806       1.61436710      -0.22166751      -0.00514626      -0.02356470       0.05520905       0.01065213      -0.01532736       0.03175822
F       -0.71769831      -0.28214720       0.10105414       0.03938789       0.03754787       0.02055332       0.01007229      -0.01686760       0.03803248
Cl       3.87313061      -0.11356852       0.67966373       0.03230439       0.03035875      -0.03362230       0.05273948       0.02372754      -0.03032036
H        1.17304590      -0.49463062       0.80485738       0.03534159       0.02451927       0.01786068       0.02784896      -0.00227891      -0.00329037
H        0.31370304       1.90484787      -0.86027730      -0.01177630      -0.00082586      -0.02027999       0.03099153      -0.00389222      -0.01619285
C        1.12289451      -0.70822090      -1.33919156      -0.01346621      -0.01135322      -0.01236905      -0.01310907       0.00112121      -0.00060127
H        0.38961604      -0.51631839      -2.12705083       0.01957606       0.05890481      -0.00475255       0.00998351       0.05941611      -0.01343118
H        2.10122725      -0.32377112      -1.62237110       0.01829279      -0.06193367       0.05083795       0.01508446      -0.03791350       0.03095535
H        1.22526654      -1.78601391      -1.20321270      -0.05786049       0.00139115      -0.04326304      -0.07332464      -0.01050546      -0.02220976
C        0.51969285       2.07144903       1.20986940      -0.01412178      -0.02004568      -0.01409239      -0.02862646       0.00515800      -0.00600875
N        0.22007700       2.58475387       2.22148867      -0.03233949       0.02182660      -0.00133911      -0.05101662       0.00858956      -0.02059209
13
Properties=species:S:1:pos:R:3:mp2_forces:R:3:forces:R:3 R1=CH3 R2=H R3=CN R4=H lg=F nu=Cl rxn-id=1808 mp2_energy=-20945.00614547083 energy=-20944.943392349964 free_energy=-20945.006144246046 pbc="F F F"
C        0.65808950      -0.05086196      -0.06425677       0.00155003      -0.03462642      -0.00321634      -0.00103403      -0.00470963       0.00605145
C        0.89683538       1.45170943      -0.06054650      -0.01174224      -0.02219890      -0.01152622      -0.00332442      -0.00511434       0.00158831
H        1.95458426       1.63063259      -0.26079666      -0.00514626      -0.02356470       0.05520905       0.01175863      -0.03263851       0.04053719
F       -0.73517004      -0.25559459       0.04936991       0.03938789       0.03754787       0.02055332       0.00711414      -0.02968738       0.05026368
Cl       3.79169705      -0.14217014       0.71656692       0.03230439       0.03035875      -0.03362230       0.08277899       0.01687605      -0.02199552
H        1.13006614      -0.49262130       0.81027804       0.03534159       0.02451927       0.01786068       0.03901105       0.00507331      -0.00875514
H        0.28116837       1.91371491      -0.83995865      -0.01177630      -0.00082586      -0.02027999       0.03545394       0.00654442      -0.02624561
C        1.14039908      -0.71096573      -1.33828445      -0.01346621      -0.01135322      -0.01236905      -0.02031522       0.00376995      -0.00331410
H        0.37106000      -0.60842247      -2.10775514       0.01957606       0.05890481      -0.00475255       0.00565846       0.06093279      -0.02641789
H        2.07474618      -0.26333030      -1.67111740       0.01829279      -0.06193367       0.05083795       0.01368482      -0.02957075       0.03933843
H        1.33891515      -1.77057837      -1.16953114      -0.05786049       0.00139115      -0.04326304      -0.07920015      -0.01081376      -0.02043605
C        0.55948361       2.06667519       1.22252490      -0.01412178      -0.02004568      -0.01409239      -0.03661526       0.00583902      -0.01267317
N        0.28958057       2.56933687       2.24761530      -0.03233949       0.02182660      -0.00133911      -0.05497096       0.01349884      -0.01794161
13
Properties=species:S:1:pos:R:3:mp2_forces:R:3:forces:R:3 R1=CH3 R2=H R3=CN R4=H lg=F nu=Cl rxn-id=1808 mp2_energy=-20945.00614547083 energy=-20944.906600679256 free_energy=-20945.006144246046 pbc="F F F"
C        0.65957456      -0.04757672      -0.06925320       0.00155003      -0.03462642      -0.00321634      -0.02057586      -0.00130373      -0.00110933
C        0.90236002       1.45577179      -0.05983681      -0.01174224      -0.02219890      -0.01152622      -0.02075923      -0.00437429      -0.00534447
H        1.94692365       1.66022914      -0.29444484      -0.00514626      -0.02356470       0.05520905       0.01314231      -0.07834492       0.05057636
F       -0.74244273      -0.22675815       0.00185844       0.03938789       0.03754787       0.02055332      -0.00820152      -0.05041344       0.06656177
Cl       3.71362683      -0.14789443       0.72563155       0.03230439       0.03035875      -0.03362230       0.13455813       0.00871178      -0.00418913
H        1.09162797      -0.49980287       0.82046235       0.03534159       0.02451927       0.01786068       0.06117338       0.02285830      -0.02181766
H        0.25206528       1.90744135      -0.81576824      -0.01177630      -0.00082586      -0.02027999       0.03917034       0.04102249      -0.03952012
C        1.15963894      -0.71622110      -1.33472456      -0.01346621      -0.01135322      -0.01236905      -0.03664581       0.00799170      -0.00727416
H        0.36828860      -0.66015925      -2.08543380       0.01957606       0.05890481      -0.00475255       0.00595565       0.04472806      -0.05897049
H        2.06643454      -0.24282033      -1.70537867       0.01829279      -0.06193367       0.05083795       0.00480761      -0.00707912       0.06423747
H        1.40517171      -1.76346210      -1.14982531      -0.05786049       0.00139115      -0.04326304      -0.07926225      -0.00304442      -0.00905828
C        0.59251314       2.06094408       1.23482053      -0.01412178      -0.02004568      -0.01409239      -0.04356245       0.00548803      -0.01996295
N        0.33567273       2.55783273       2.26600093      -0.03233949       0.02182660      -0.00133911      -0.04980030       0.01375957      -0.01412901
13
Properties=species:S:1:pos:R:3:mp2_forces:R:3:forces:R:3 R1=CH3 R2=H R3=CN R4=H lg=F nu=Cl rxn-id=1808 mp2_energy=-20945.00614547083 energy=-20944.725996745634 free_energy=-20945.006144246046 pbc="F F F"
C        0.69068366      -0.04428633      -0.06785443       0.00155003      -0.03462642      -0.00321634      -0.20657999       0.00257246      -0.04310103
C        0.93581943       1.46419939      -0.04977503      -0.01174224      -0.02219890      -0.01152622      -0.10720067      -0.00321733      -0.02602565
H        1.92882848       1.78538189      -0.36946991      -0.00514626      -0.02356470       0.05520905       0.01923021      -0.26286719       0.06627404
F       -0.73211474      -0.14374831      -0.10794256       0.03938789       0.03754787       0.02055332      -0.04493684      -0.11782402       0.10035111
Cl       3.50152490      -0.16047552       0.72193145       0.03230439       0.03035875      -0.03362230       0.40571443      -0.02322849       0.09463181
H        0.99087306      -0.53502818       0.85673427       0.03534159       0.02451927       0.01786068       0.18167025       0.08334396      -0.06832483
H        0.19355974       1.84677029      -0.75426945      -0.01177630      -0.00082586      -0.02027999       0.04371031       0.22851114      -0.07343266
C        1.21827487      -0.73067021      -1.32206379      -0.01346621      -0.01135322      -0.01236905      -0.12768642       0.01780231      -0.01717676
H        0.35946230      -0.73720773      -1.99177078       0.01957606       0.05890481      -0.00475255       0.02867815      -0.06434140      -0.23930103
H        2.05857713      -0.23297159      -1.81002395       0.01829279      -0.06193367       0.05083795      -0.04118614       0.07063793       0.17715198
H        1.53388673      -1.75886672      -1.12968609      -0.05786049       0.00139115      -0.04326304      -0.07403624       0.04543245       0.05333024
C        0.66036573       2.04764261       1.26069391      -0.01412178      -0.02004568      -0.01409239      -0.04679187       0.01319196      -0.02371907
N        0.41171395       2.53678453       2.29760474      -0.03233949       0.02182660      -0.00133911      -0.03058520       0.00998621      -0.00065814
13
Properties=species:S:1:pos:R:3:mp2_forces:R:3:forces:R:3 R1=CH3 R2=H R3=CN R4=H lg=F nu=Cl rxn-id=1808 mp2_energy=-20945.00614547083 energy=-20944.373631383292 free_energy=-20945.006144246046 pbc="F F F"
C        0.77339324      -0.04511181      -0.05045408       0.00155003      -0.03462642      -0.00321634      -1.57582103      -0.05408136      -0.17022325
C        0.97910861       1.46592357      -0.03910492      -0.01174224      -0.02219890      -0.01152622      -0.20972077      -0.04018940      -0.00709745
H        1.92193421       1.89040867      -0.39419589      -0.00514626      -0.02356470       0.05520905       0.03312879      -0.33266148       0.03451134
F       -0.71376149      -0.09637828      -0.14674344       0.03938789       0.03754787       0.02055332       0.76605295      -0.11275521       0.13819144
Cl       3.33952780      -0.15215556       0.68327362       0.03230439       0.03035875      -0.03362230       0.79675102      -0.05673914       0.23355982
H        0.92040951      -0.56779733       0.88409142       0.03534159       0.02451927       0.01786068       0.42601797       0.08241815      -0.02620764
H        0.17802278       1.75633822      -0.72592766      -0.01177630      -0.00082586      -0.02027999       0.07637451       0.44945503      -0.11424243
C        1.26889924      -0.73792339      -1.31538885      -0.01346621      -0.01135322      -0.01236905      -0.23602778       0.03015581       0.04079862
H        0.34723650      -0.71231535      -1.89598799       0.01957606       0.05890481      -0.00475255       0.08375642      -0.17821016      -0.46065509
H        2.07395816      -0.26127444      -1.88188046       0.01829279      -0.06193367       0.05083795      -0.06499971       0.10337180       0.23022710
H        1.56339574      -1.77689971      -1.15084330      -0.05786049       0.00139115      -0.04326304      -0.05342608       0.06495243       0.08618190
C        0.67842729       2.04090261       1.26672217      -0.01412178      -0.02004568      -0.01409239      -0.01356259       0.04908336       0.02160768
N        0.42090366       2.53380693       2.30054775      -0.03233949       0.02182660      -0.00133911      -0.02852370      -0.00479984      -0.00665203
13
Properties=species:S:1:pos:R:3:mp2_forces:R:3:forces:R:3 R1=CH3 R2=H R3=CN R4=H lg=F nu=Cl rxn-id=1808 mp2_energy=-20945.00614547083 energy=-20943.546110338822 free_energy=-20945.006144246046 pbc="F F F"
C        0.91449904      -0.04018815      -0.03537006       0.00155003      -0.03462642      -0.00321634      -2.93593382      -0.05593982      -0.38192895
C        0.99805971       1.46955147      -0.03867811      -0.01174224      -0.02219890      -0.01152622      -0.00095196      -0.00845051       0.02333850
H        1.91918279       1.92037798      -0.39714070      -0.00514626      -0.02356470       0.05520905       0.06153156      -0.21443297       0.02153035
F       -0.78192827      -0.08621968      -0.15866023       0.03938789       0.03754787       0.02055332       1.34382752      -0.07830011       0.16696688
Cl       3.26801182      -0.14732213       0.66235417       0.03230439       0.03035875      -0.03362230       0.70205001      -0.04808158       0.20591402
H        0.88226069      -0.57500774       0.88630931       0.03534159       0.02451927       0.01786068       0.68823740       0.03251431       0.13088677
H        0.17130815       1.71624720      -0.71582973      -0.01177630      -0.00082586      -0.02027999       0.09288327       0.35721239      -0.07419367
C        1.29004033      -0.74067387      -1.31915597      -0.01346621      -0.01135322      -0.01236905      -0.04364215       0.02831510       0.03928640
H        0.33953833      -0.69658697      -1.85460712       0.01957606       0.05890481      -0.00475255       0.10923373      -0.14796758      -0.37131532
H        2.07962837      -0.27061879      -1.90279258       0.01829279      -0.06193367       0.05083795      -0.01431222       0.06665402       0.15745528
H        1.56833371      -1.78272155      -1.15850773      -0.05786049       0.00139115      -0.04326304      -0.00288254       0.03786512       0.06643595
C        0.67893743       2.03747890       1.26697818      -0.01412178      -0.02004568      -0.01409239       0.03596671       0.02484266      -0.00104394
N        0.42358314       2.53320746       2.29920894      -0.03233949       0.02182660      -0.00133911      -0.03600751       0.00576897       0.01666773
13
Properties=species:S:1:pos:R:3:mp2_forces:R:3:forces:R:3 R1=CH3 R2=H R3=CN R4=H lg=F nu=Cl rxn-id=1808 mp2_energy=-20945.00614547083 energy=-20943.183692531966 free_energy=-20945.006144246046 pbc="F F F"
C        1.04168490      -0.03773020      -0.01885328       0.00155003      -0.03462642      -0.00321634      -1.20222302       0.00549956      -0.21808128
C        0.99812374       1.46998568      -0.03966157      -0.01174224      -0.02219890      -0.01152622       0.00989318       0.02098254       0.00290210
H        1.91660197       1.92972017      -0.39792787      -0.00514626      -0.02356470       0.05520905       0.03264906      -0.09386206       0.01862845
F       -0.84004190      -0.08281686      -0.16569868       0.03938789       0.03754787       0.02055332       0.42397687      -0.02811102       0.05157018
Cl       3.23752984      -0.14530699       0.65336932       0.03230439       0.03035875      -0.03362230       0.35180974      -0.02230852       0.09679459
H        0.85250222      -0.57636897       0.88063835       0.03534159       0.02451927       0.01786068       0.31593050      -0.01993781       0.12417655
H        0.16743159       1.70093163      -0.71269137      -0.01177630      -0.00082586      -0.02027999       0.03537919       0.15123606      -0.02757564
C        1.29190132      -0.74193070      -1.32089155      -0.01346621      -0.01135322      -0.01236905      -0.01129790      -0.00193797      -0.00439569
H        0.33475468      -0.69031279      -1.83852901       0.01957606       0.05890481      -0.00475255       0.04260275      -0.06444298      -0.15999754
H        2.08016031      -0.27353845      -1.90973499       0.01829279      -0.06193367       0.05083795      -0.00348756       0.02560554       0.07533991
H        1.56852161      -1.78436329      -1.16134843      -0.05786049       0.00139115      -0.04326304       0.00661577       0.01727946       0.03261782
C        0.67739789       2.03614977       1.26655185      -0.01412178      -0.02004568      -0.01409239       0.01757007       0.00965495       0.00121596
N        0.42488708       2.53310512       2.29888559      -0.03233949       0.02182660      -0.00133911      -0.01941865       0.00034226       0.00680459
13
Properties=species:S:1:pos:R:3:mp2_forces:R:3:forces:R:3 R1=CH3 R2=H R3=CN R4=H lg=F nu=Cl rxn-id=1808 mp2_energy=-20945.00614547083 energy=-20943.10340224889 free_energy=-20945.006144246046 pbc="F F F"
C        1.16173039      -0.03821687       0.00283471       0.00155003      -0.03462642      -0.00321634       0.24769916      -0.00201083       0.04821394
C        0.99721426       1.46801703      -0.03993956      -0.01174224      -0.02219890      -0.01152622       0.00650786      -0.00716344       0.00166720
H        1.91354819       1.93922629      -0.39946969      -0.00514626      -0.02356470       0.05520905      -0.00458605       0.02462034      -0.00298447
F       -0.88216070      -0.07996445      -0.17039845       0.03938789       0.03754787       0.02055332      -0.09968635       0.00523478      -0.00754024
Cl       3.20223240      -0.14323503       0.64356517       0.03230439       0.03035875      -0.03362230      -0.09022698       0.00345032      -0.02376758
H        0.82110410      -0.57427197       0.86825105       0.03534159       0.02451927       0.01786068      -0.05517948       0.01221707      -0.03614999
H        0.16422840       1.68618703      -0.71013362      -0.01177630      -0.00082586      -0.02027999      -0.00152683      -0.03512496       0.00567564
C        1.29297077      -0.74181142      -1.32053107      -0.01346621      -0.01135322      -0.01236905       0.00889258       0.00207902       0.00484228
H        0.33038631      -0.68418450      -1.82256669       0.01957606       0.05890481      -0.00475255      -0.00868509       0.01275749       0.04178941
H        2.08030648      -0.27616942      -1.91753683       0.01829279      -0.06193367       0.05083795      -0.00095959      -0.00619224      -0.02269616
H        1.56800040      -1.78609987      -1.16452465      -0.05786049       0.00139115      -0.04326304       0.00097448      -0.00400911      -0.00643691
C        0.67552529       2.03490312       1.26599050      -0.01412178      -0.02004568      -0.01409239      -0.00294962      -0.00476595      -0.00242677
N        0.42636895       2.53314420       2.29856749      -0.03233949       0.02182660      -0.00133911      -0.00027409      -0.00109249      -0.00018635
13
Properties=species:S:1:pos:R:3:mp2_forces:R:3:forces:R:3 R1=CH3 R2=H R3=CN R4=H lg=F nu=Cl rxn-id=1808 mp2_energy=-20945.00614547083 energy=-20943.24840510227 free_energy=-20945.006144246046 pbc="F F F"
C        1.27222176      -0.04005286       0.02694507       0.00155003      -0.03462642      -0.00321634       1.07522755      -0.01741874       0.23341218
C        1.00334195       1.46229958      -0.03801171      -0.01174224      -0.02219890      -0.01152622       0.06071517      -0.05472487       0.01849688
H        1.91040408       1.95127749      -0.40356975      -0.00514626      -0.02356470       0.05520905      -0.02841776       0.11884511      -0.03688486
F       -0.93499466      -0.07866998      -0.17673957       0.03938789       0.03754787       0.02055332      -0.51253046       0.01324175      -0.05702851