13
Properties=species:S:1:pos:R:3:mp2_forces:R:3:forces:R:3 R1=NO2 R2=H R3=CN R4=CN lg=Cl nu=Cl rxn-id=918 mp2_energy=-37735.580111661155 energy=-37735.580121463325 free_energy=-37735.580121463325 pbc="F F F"
C        0.48293747      -0.06657280      -0.06296930       0.00778271       0.00801855      -0.03515310       0.00780380       0.00805997      -0.03514614
C        0.97208919       1.37772955      -0.05388618       0.02971601       0.01946260       0.02386053       0.02973131       0.01953724       0.02388007
H        2.07130474       1.28036208      -0.09265634       0.00913057       0.06561446      -0.01383129       0.00909882       0.06560909      -0.01383795
Cl      -1.28403123      -0.16678779      -0.15357281      -0.02456139      -0.02339000       0.02962216      -0.02455197      -0.02340293       0.02961666
Cl       3.37221074      -0.31186292       0.99550949       0.02411526       0.03164376       0.02875614       0.02411716       0.03164035       0.02875843
H        0.85021904      -0.57664150       0.82288208      -0.01837047      -0.03895568       0.01579788      -0.01837328      -0.03895452       0.01578817
N        1.05867096      -0.81809244      -1.23773490       0.00127758      -0.01553791       0.00521980       0.00125417      -0.01571517       0.00531327
O        1.55611151      -0.16271860      -2.14649950      -0.02695938       0.00412353      -0.01496551      -0.02695742       0.00420930      -0.01504639
O        0.95762734      -2.03530772      -1.18434596      -0.04324858       0.01801665      -0.02795711      -0.04325951       0.01807529      -0.02796935
C        0.62892295       1.99535132       1.23051752       0.03448778      -0.05706379      -0.03360899       0.03448660      -0.05706582      -0.03358864
N        0.34698899       2.50707165       2.24827839      -0.04012469       0.02337451       0.01229725      -0.04011726       0.02335254       0.01224141
C        0.43282824       2.19718007      -1.14152072      -0.00139840       0.03061029      -0.02685421      -0.00137011       0.03055611      -0.02680306
N       -0.01230557       2.90712734      -1.96510097       0.04815299      -0.06591696       0.03681645       0.04813768      -0.06590145       0.03679353
13
Properties=species:S:1:pos:R:3:mp2_forces:R:3:forces:R:3 R1=NO2 R2=H R3=CN R4=CN lg=Cl nu=Cl rxn-id=918 mp2_energy=-37735.580111661155 energy=-37735.5582573777 free_energy=-37735.580121463325 pbc="F F F"
C        0.50112122      -0.07127213      -0.06653524       0.00778271       0.00801855      -0.03515310       0.00448801      -0.00306300       0.00346370
C        0.98278575       1.37769392      -0.05967774       0.02971601       0.01946260       0.02386053       0.00081255      -0.00231739       0.00145350
H        2.07949693       1.31696731      -0.13657474       0.00913057       0.06561446      -0.01383129       0.00203157      -0.00656539       0.01404783
Cl      -1.27079730      -0.18329921      -0.10930329      -0.02456139      -0.02339000       0.02962216       0.00158429      -0.00596161       0.02317491
Cl       3.32411762      -0.33375556       1.14630496       0.02411526       0.03164376       0.02875614       0.01579212       0.01756995      -0.00110804
H        0.88990187      -0.58846073       0.80800457      -0.01837047      -0.03895568       0.01579788       0.01885568      -0.00162721      -0.00472942
N        1.05237726      -0.80126381      -1.26754247       0.00127758      -0.01553791       0.00521980      -0.01141824       0.00038127      -0.00514844
O        1.61607858      -0.13923595      -2.13365246      -0.02695938       0.00412353      -0.01496551      -0.00506229       0.00147380      -0.00021066
O        0.87941484      -2.01096100      -1.27258221      -0.04324858       0.01801665      -0.02795711      -0.02503017       0.00214650      -0.01484160
C        0.66299108       1.99666978       1.22715779       0.03448778      -0.05706379      -0.03360899      -0.01140018      -0.00021118      -0.00201054
N        0.38573902       2.52855390       2.23553070      -0.04012469       0.02337451       0.01229725      -0.02253676      -0.00077979      -0.00455087
C        0.40761844       2.17859426      -1.14314363      -0.00139840       0.03061029      -0.02685421       0.01171832      -0.00203340      -0.00346221
N       -0.07727093       2.85660744      -1.96908541       0.04815299      -0.06591696       0.03681645       0.02016510       0.00098743      -0.00607817
13
Properties=species:S:1:pos:R:3:mp2_forces:R:3:forces:R:3 R1=NO2 R2=H R3=CN R4=CN lg=Cl nu=Cl rxn-id=918 mp2_energy=-37735.580111661155 energy=-37735.55726774637 free_energy=-37735.580121463325 pbc="F F F"
C        0.50399555      -0.06771935      -0.06628732       0.00778271       0.00801855      -0.03515310       0.00516961      -0.00537313       0.00416868
C        0.98508948       1.38136263      -0.06009162       0.02971601       0.01946260       0.02386053      -0.00068378      -0.00415639       0.00104978
H        2.08152223       1.32267731      -0.14089827       0.00913057       0.06561446      -0.01383129       0.00080934      -0.00612678       0.01479554
Cl      -1.26841707      -0.17617496      -0.10535975      -0.02456139      -0.02339000       0.02962216       0.00025505      -0.01490276       0.02224607
Cl       3.31596872      -0.35281701       1.15667590       0.02411526       0.03164376       0.02875614       0.01610207       0.02240948      -0.00184936
H        0.89448927      -0.58537572       0.80737307      -0.01837047      -0.03895568       0.01579788       0.01748498      -0.00167641      -0.00520007
N        1.05435682      -0.79641187      -1.26868054       0.00127758      -0.01553791       0.00521980      -0.01289253      -0.00060266      -0.00509041
O        1.61952553      -0.13407906      -2.13383618      -0.02695938       0.00412353      -0.01496551      -0.00473672      -0.00028833       0.00056022
O        0.88053727      -2.00589718      -1.27504119      -0.04324858       0.01801665      -0.02795711      -0.02696100       0.00133810      -0.01593452
C        0.66557601       1.99830443       1.22774679       0.03448778      -0.05706379      -0.03360899      -0.01169257       0.00034750      -0.00327004
N        0.38711864       2.52473897       2.23867666      -0.04012469       0.02337451       0.01229725      -0.02022562       0.00327688      -0.00723106
C        0.40322150       2.17629698      -1.14497675      -0.00139840       0.03061029      -0.02685421       0.01284448      -0.00242153      -0.00308558
N       -0.08940959       2.84193309      -1.97640000       0.04815299      -0.06591696       0.03681645       0.02452669       0.00817604      -0.00115927
13
Properties=species:S:1:pos:R:3:mp2_forces:R:3:forces:R:3 R1=NO2 R2=H R3=CN R4=CN lg=Cl nu=Cl rxn-id=918 mp2_energy=-37735.580111661155 energy=-37735.558558728626 free_energy=-37735.580121463325 pbc="F F F"
C        0.50047251      -0.07396277      -0.06724395       0.00778271       0.00801855      -0.03515310       0.00564989      -0.00130336       0.00389333
C        0.98271815       1.37505538      -0.06046624       0.02971601       0.01946260       0.02386053       0.00058256      -0.00099925       0.00196054
H        2.07944256       1.31414941      -0.13554868       0.00913057       0.06561446      -0.01383129       0.00213526      -0.00805663       0.01426867
Cl      -1.27117932      -0.18395825      -0.11046046      -0.02456139      -0.02339000       0.02962216      -0.00141654      -0.00672832       0.02217894
Cl       3.32670633      -0.32081429       1.14671601       0.02411526       0.03164376       0.02875614       0.01690879       0.01382858      -0.00136324
H        0.88844474      -0.59157920       0.80761560      -0.01837047      -0.03895568       0.01579788       0.01841642       0.00263358      -0.00660665
N        1.05054181      -0.80532426      -1.26776157       0.00127758      -0.01553791       0.00521980      -0.01120916       0.00304432      -0.00496293
O        1.60669458      -0.14201750      -2.13767886      -0.02695938       0.00412353      -0.01496551      -0.00318328       0.00176402      -0.00111845
O        0.88300060      -2.01590432      -1.26977984      -0.04324858       0.01801665      -0.02795711      -0.02504924       0.00469321      -0.01299502
C        0.66216927       1.99427877       1.22615835       0.03448778      -0.05706379      -0.03360899      -0.01005168       0.00118800      -0.00111529
N        0.38407712       2.52903986       2.23274995      -0.04012469       0.02337451       0.01229725      -0.02278662      -0.00314026      -0.00218975
C        0.41055779       2.18055883      -1.14208439      -0.00139840       0.03061029      -0.02685421       0.01170424      -0.00276071      -0.00349436
N       -0.07007178       2.86731656      -1.96331513       0.04815299      -0.06591696       0.03681645       0.01829935      -0.00416318      -0.00845578
13
Properties=species:S:1:pos:R:3:mp2_forces:R:3:forces:R:3 R1=NO2 R2=H R3=CN R4=CN lg=Cl nu=Cl rxn-id=918 mp2_energy=-37735.580111661155 energy=-37735.55025971986 free_energy=-37735.580121463325 pbc="F F F"
C        0.49215267      -0.06150033      -0.06271343       0.00778271       0.00801855      -0.03515310       0.00207422      -0.00493123       0.00046416
C        0.98149050       1.38601473      -0.05368277       0.02971601       0.01946260       0.02386053      -0.00700578      -0.00574743      -0.00050100
H        2.07800204       1.32307574      -0.13076162       0.00913057       0.06561446      -0.01383129      -0.00264997      -0.02316685       0.01658567
Cl      -1.27925654      -0.15504975      -0.17293798      -0.02456139      -0.02339000       0.02962216      -0.00737228      -0.01824528       0.03658286
Cl       3.33566678      -0.35446702       1.03881142       0.02411526       0.03164376       0.02875614       0.03048274       0.02278932       0.01929217
H        0.83759676      -0.57754173       0.82914418      -0.01837047      -0.03895568       0.01579788       0.02975673       0.00107194      -0.01324204
N        1.07220663      -0.80794077      -1.23804322       0.00127758      -0.01553791       0.00521980      -0.01458070       0.00178276      -0.01032291
O        1.60662203      -0.15205450      -2.12597341      -0.02695938       0.00412353      -0.01496551      -0.00743530       0.00243749      -0.00600767
O        0.93513451      -2.02177228      -1.20845845      -0.04324858       0.01801665      -0.02795711      -0.02841984       0.00283171      -0.02037480
C        0.65943898       1.99582622       1.23667501       0.03448778      -0.05706379      -0.03360899      -0.01367039       0.00119678      -0.00493033
N        0.38134275       2.50789593       2.25511146      -0.04012469       0.02337451       0.01229725      -0.02159049       0.00714233      -0.01013998
C        0.40829677       2.18678890      -1.13778816      -0.00139840       0.03061029      -0.02685421       0.01325160       0.00054711      -0.00436280
N       -0.07511950       2.85756310      -1.97048221       0.04815299      -0.06591696       0.03681645       0.02715946       0.01229135      -0.00304333
13
Properties=species:S:1:pos:R:3:mp2_forces:R:3:forces:R:3 R1=NO2 R2=H R3=CN R4=CN lg=Cl nu=Cl rxn-id=918 mp2_energy=-37735.580111661155 energy=-37735.51898474098 free_energy=-37735.580121463325 pbc="F F F"
C        0.49455306      -0.05382125      -0.06441283       0.00778271       0.00801855      -0.03515310      -0.02777351       0.00681779      -0.01437537
C        0.98806300       1.39679332      -0.05330656       0.02971601       0.01946260       0.02386053      -0.03088180      -0.00440203      -0.00977637
H        2.08045882       1.37535825      -0.17332134       0.00913057       0.06561446      -0.01383129      -0.02214373      -0.12099780       0.03454140
Cl      -1.27273661      -0.12054084      -0.26300948      -0.02456139      -0.02339000       0.02962216      -0.02801809      -0.04938523       0.05499900
Cl       3.26264411      -0.40163212       1.00274785       0.02411526       0.03164376       0.02875614       0.11593275       0.01676197       0.06568097
H        0.77639250      -0.57349755       0.84723754      -0.01837047      -0.03895568       0.01579788       0.06457053       0.02995982      -0.03659430
N        1.11041627      -0.81499792      -1.21094888       0.00127758      -0.01553791       0.00521980      -0.03828041       0.01233277      -0.02256742
O        1.62157742      -0.16547512      -2.11587814      -0.02695938       0.00412353      -0.01496551      -0.00305283       0.01144648      -0.00475734
O        0.99881435      -2.03084582      -1.15921892      -0.04324858       0.01801665      -0.02795711      -0.02902691       0.01250229      -0.01230405
C        0.69561649       1.99343983       1.25009887       0.03448778      -0.05706379      -0.03360899      -0.02681980       0.00416900      -0.01426823
N        0.43649637       2.49586063       2.27833438      -0.04012469       0.02337451       0.01229725      -0.02546504       0.00980587      -0.01575506
C        0.37226828       2.18704451      -1.12215546      -0.00139840       0.03061029      -0.02685421       0.02853824       0.03312449      -0.01540182
N       -0.13098968       2.83915232      -1.95726623       0.04815299      -0.06591696       0.03681645       0.02242059       0.03786458      -0.00942141
13
Properties=species:S:1:pos:R:3:mp2_forces:R:3:forces:R:3 R1=NO2 R2=H R3=CN R4=CN lg=Cl nu=Cl rxn-id=918 mp2_energy=-37735.580111661155 energy=-37735.42687228452 free_energy=-37735.580121463325 pbc="F F F"
C        0.52206407      -0.05897329      -0.05032507       0.00778271       0.00801855      -0.03515310      -0.24002147       0.04738410      -0.08786488
C        1.01400282       1.40235817      -0.04394509       0.02971601       0.01946260       0.02386053      -0.10823175      -0.00831620      -0.02652507
H        2.10084385       1.48742421      -0.20561430       0.00913057       0.06561446      -0.01383129      -0.06455722      -0.33618240       0.05402285
Cl      -1.24769701      -0.07834019      -0.31609938      -0.02456139      -0.02339000       0.02962216      -0.00867088      -0.08213963       0.04399542
Cl       3.16571418      -0.41861826       0.94574291       0.02411526       0.03164376       0.02875614       0.33203321      -0.02783040       0.16464735
H        0.71314034      -0.59777128       0.87750698      -0.01837047      -0.03895568       0.01579788       0.18965919       0.11260140      -0.11242534
N        1.14715314      -0.82776201      -1.19006973       0.00127758      -0.01553791       0.00521980      -0.12118698       0.04451162      -0.02350442
O        1.61943686      -0.17995129      -2.11660411      -0.02695938       0.00412353      -0.01496551       0.02905434       0.02564336       0.03991880
O        1.02430498      -2.04294104      -1.14329621      -0.04324858       0.01801665      -0.02795711       0.00192039       0.03083117       0.02904478
C        0.72054883       1.98959362       1.26254492       0.03448778      -0.05706379      -0.03360899      -0.02475459      -0.00043881      -0.00464030
N        0.45745042       2.48440863       2.29369755      -0.04012469       0.02337451       0.01229725      -0.02429569       0.00933375      -0.02186863
C        0.34735052       2.16048552      -1.10663037      -0.00139840       0.03061029      -0.02685421       0.05670833       0.12879422      -0.02157663
N       -0.15073864       2.80692545      -1.94800730       0.04815299      -0.06591696       0.03681645      -0.01765687       0.05580782      -0.03322395
13
Properties=species:S:1:pos:R:3:mp2_forces:R:3:forces:R:3 R1=NO2 R2=H R3=CN R4=CN lg=Cl nu=Cl rxn-id=918 mp2_energy=-37735.580111661155 energy=-37735.23191493598 free_energy=-37735.580121463325 pbc="F F F"
C        0.58927457      -0.07146364      -0.02601003       0.00778271       0.00801855      -0.03515310      -1.25035780       0.10573027      -0.30288311
C        1.04368350       1.40394170      -0.03650198       0.02971601       0.01946260       0.02386053      -0.19439681      -0.05484202      -0.01907636
H        2.11770673       1.57882887      -0.22037872       0.00913057       0.06561446      -0.01383129      -0.04713586      -0.41204067       0.05170668
Cl      -1.24619076      -0.05453665      -0.33047195      -0.02456139      -0.02339000       0.02962216       0.47738511      -0.07804741       0.07577994
Cl       3.07454561      -0.41008377       0.89847118       0.02411526       0.03164376       0.02875614       0.59717593      -0.08738613       0.26729200
H        0.66285945      -0.62830748       0.90799136      -0.01837047      -0.03895568       0.01579788       0.42283857       0.16215071      -0.14994074
N        1.18026407      -0.84009392      -1.18285977       0.00127758      -0.01553791       0.00521980      -0.16801750       0.07107127       0.00773302
O        1.60964595      -0.18725276      -2.12762328      -0.02695938       0.00412353      -0.01496551       0.06397958       0.01858117       0.09111202
O        1.02454722      -2.05184684      -1.14869612      -0.04324858       0.01801665      -0.02795711       0.04937207       0.03814608       0.05577608
C        0.72607515       1.99018871       1.26506864       0.03448778      -0.05706379      -0.03360899       0.02848449      -0.01962634      -0.00658833
N        0.46382167       2.48045570       2.29827827      -0.04012469       0.02337451       0.01229725      -0.04068729       0.00950315      -0.01730376
C        0.33162773       2.12412889      -1.10083524      -0.00139840       0.03061029      -0.02685421       0.12157357       0.21669590      -0.00621152
N       -0.14428652       2.79287943      -1.93753157       0.04815299      -0.06591696       0.03681645      -0.06021405       0.03006402      -0.04739593
13
Properties=species:S:1:pos:R:3:mp2_forces:R:3:forces:R:3 R1=NO2 R2=H R3=CN R4=CN lg=Cl nu=Cl rxn-id=918 mp2_energy=-37735.580111661155 energy=-37734.93757489802 free_energy=-37735.580121463325 pbc="F F F"
C        0.68279505      -0.07907478      -0.00355189       0.00778271       0.00801855      -0.03515310      -2.26099220       0.15916331      -0.53543196
C        1.05822859       1.40822937      -0.03520647       0.02971601       0.01946260       0.02386053      -0.12165585      -0.07790171       0.01132720
H        2.12136772       1.60985602      -0.22435915       0.00913057       0.06561446      -0.01383129       0.00622655      -0.31010033       0.03674118
Cl      -1.28245082      -0.04873740      -0.33612491      -0.02456139      -0.02339000       0.02962216       0.98293829      -0.05559841       0.14257772
Cl       3.03014740      -0.40376197       0.87893238       0.02411526       0.03164376       0.02875614       0.60643247      -0.09507921       0.25677380
H        0.63111912      -0.64010189       0.91873262      -0.01837047      -0.03895568       0.01579788       0.59925772       0.09547581      -0.02837008
N        1.19281281      -0.84569927      -1.18336809       0.00127758      -0.01553791       0.00521980      -0.02997731       0.05215172       0.04410519
O        1.60465576      -0.18875403      -2.13422718      -0.02695938       0.00412353      -0.01496551       0.06849293       0.00249326       0.07729979
O        1.02131189      -2.05512141      -1.15279638      -0.04324858       0.01801665      -0.02795711       0.06061997       0.02391059       0.04416799
C        0.72429224       1.99106004       1.26509567       0.03448778      -0.05706379      -0.03360899       0.05389842      -0.01661855      -0.01137371
N        0.46681327       2.47985230       2.30002059      -0.04012469       0.02337451       0.01229725      -0.04145168       0.00890295      -0.00756045
C        0.32255540       2.10816528      -1.10002193      -0.00139840       0.03061029      -0.02685421       0.12893529       0.20196606       0.00136313
N       -0.14007405       2.79092596      -1.93422447       0.04815299      -0.06591696       0.03681645      -0.05272461       0.01123451      -0.03161980
13
Properties=species:S:1:pos:R:3:mp2_forces:R:3:forces:R:3 R1=NO2 R2=H R3=CN R4=CN lg=Cl nu=Cl rxn-id=918 mp2_energy=-37735.580111661155 energy=-37734.71618513837 free_energy=-37735.580121463325 pbc="F F F"
C        0.75451714      -0.08405667       0.01338821       0.00778271       0.00801855      -0.03515310      -1.90211759       0.14942799      -0.48768580
C        1.06209042       1.41075777      -0.03551645       0.02971601       0.01946260       0.02386053      -0.04243547      -0.04839598       0.01529575
H        2.12113739       1.61971394      -0.22553871       0.00913057       0.06561446      -0.01383129       0.02546560      -0.20628144       0.02740459
Cl      -1.31370565      -0.04700015      -0.34076651      -0.02456139      -0.02339000       0.02962216       0.71208644      -0.03402230       0.09999965
Cl       3.01106411      -0.40076608       0.87085980       0.02411526       0.03164376       0.02875614       0.46329088      -0.07198988       0.19027696
H        0.61208541      -0.64305059       0.91956389      -0.01837047      -0.03895568       0.01579788       0.52479838       0.02741628       0.05784646
N        1.19375060      -0.84738926      -1.18471537       0.00127758      -0.01553791       0.00521980       0.04189896       0.02255339       0.04192583
O        1.60235621      -0.18888679      -2.13670726      -0.02695938       0.00412353      -0.01496551       0.05567432      -0.00393991       0.04824946
O        1.01946653      -2.05596303      -1.15407008      -0.04324858       0.01801665      -0.02795711       0.05073363       0.00722894       0.02769390
C        0.72280224       1.99117224       1.26469179       0.03448778      -0.05706379      -0.03360899       0.04098741      -0.00060314       0.00996035
N        0.46795458       2.47981295       2.30090383      -0.04012469       0.02337451       0.01229725      -0.02725440       0.00202823      -0.01529538
C        0.31841521       2.10186911      -1.10007884      -0.00139840       0.03061029      -0.02685421       0.09404886       0.14657875       0.00632535
N       -0.13835983       2.79062480      -1.93311351       0.04815299      -0.06591696       0.03681645      -0.03717702       0.00999907      -0.02199712
13
Properties=species:S:1:pos:R:3:mp2_forces:R:3:forces:R:3 R1=NO2 R2=H R3=CN R4=CN lg=Cl nu=Cl rxn-id=918 mp2_energy=-37735.580111661155 energy=-37734.56732277322 free_energy=-37735.580121463325 pbc="F F F"
C        0.82609442      -0.08962218       0.03168768       0.00778271       0.00801855      -0.03515310      -1.07564582       0.09970957      -0.30392558
C        1.06370832       1.41258764      -0.03614464       0.02971601       0.01946260       0.02386053      -0.00480194      -0.01348947       0.00915731
H        2.12016408       1.62749052      -0.22660850       0.00913057       0.06561446      -0.01383129       0.02199867      -0.10737792       0.01722265
Cl      -1.34059774      -0.04574668      -0.34468153      -0.02456139      -0.02339000       0.02962216       0.32255580      -0.01494857       0.04065887
Cl       2.99381297      -0.39807224       0.86376790       0.02411526       0.03164376       0.02875614       0.27521649      -0.04044332       0.10934013
H        0.59231002      -0.64398825       0.91730571      -0.01837047      -0.03895568       0.01579788       0.31176035      -0.00909505       0.07391685
N        1.19216227      -0.84827632      -1.18623145       0.00127758      -0.01553791       0.00521980       0.04470703       0.00184450       0.02234758
O        1.60011422      -0.18880161      -2.13856312      -0.02695938       0.00412353      -0.01496551       0.03294365      -0.00519132       0.02112142
O        1.01764851      -2.05632567      -1.15494571      -0.04324858       0.01801665      -0.02795711       0.03190181      -0.00335372       0.01417123
C        0.72123714       1.99121981       1.26449643       0.03448778      -0.05706379      -0.03360899       0.02481443       0.00064253       0.00552626
N        0.46900778       2.47958536       2.30131629      -0.04012469       0.02337451       0.01229725      -0.01575845       0.00265515      -0.00467417
C        0.31483964       2.09642487      -1.10030360      -0.00139840       0.03061029      -0.02685421       0.05046593       0.08090825       0.00599726
N       -0.13692726       2.79036300      -1.93219466       0.04815299      -0.06591696       0.03681645      -0.02015793       0.00813937      -0.01085982
13
Properties=species:S:1:pos:R:3:mp2_forces:R:3:forces:R:3 R1=NO2 R2=H R3=CN R4=CN lg=Cl nu=Cl rxn-id=918 mp2_energy=-37735.580111661155 energy=-37734.50506658087 free_energy=-37735.580121463325 pbc="F F F"
C        0.90004332      -0.09636812       0.05249290       0.00778271       0.00801855      -0.03515310      -0.15048321       0.01699835      -0.04639181
C        1.06406370       1.41354648      -0.03683731       0.02971601       0.01946260       0.02386053       0.00011800       0.00020295       0.00013557
H        2.11861393       1.63489636      -0.22785908       0.00913057       0.06561446      -0.01383129       0.00304580      -0.01420527       0.00200802
Cl      -1.36293834      -0.04476608      -0.34776927      -0.02456139      -0.02339000       0.02962216       0.03840631      -0.00218948       0.00082919
Cl       2.97521727      -0.39531679       0.85635931       0.02411526       0.03164376       0.02875614       0.04913232      -0.00634977       0.01861486
H        0.57083552      -0.64319278       0.91207698      -0.01837047      -0.03895568       0.01579788       0.04069458      -0.00166623       0.01210916
N        1.18906587      -0.84846596      -1.18765372       0.00127758      -0.01553791       0.00521980       0.00607333      -0.00145004       0.00342507
O        1.59758099      -0.18855864      -2.14009533      -0.02695938       0.00412353      -0.01496551       0.00141579      -0.00243990       0.00103841
O        1.01561713      -2.05625407      -1.15559982      -0.04324858       0.01801665      -0.02795711       0.00643348      -0.00318399       0.00569472
C        0.71956699       1.99107234       1.26409735       0.03448778      -0.05706379      -0.03360899       0.00370450      -0.00065227       0.00084623
N        0.47007225       2.47926436       2.30164101      -0.04012469       0.02337451       0.01229725      -0.00240870      -0.00124082      -0.00034383
C        0.31131969       2.09093752      -1.10065400      -0.00139840       0.03061029      -0.02685421       0.00593881       0.01178527       0.00148989
N       -0.13548395       2.79004362      -1.93129822       0.04815299      -0.06591696       0.03681645      -0.00207101       0.00439121       0.00054452
13
Properties=species:S:1:pos:R:3:mp2_forces:R:3:forces:R:3 R1=NO2 R2=H R3=CN R4=CN lg=Cl nu=Cl rxn-id=918 mp2_energy=-37735.580111661155 energy=-37734.53645041542 free_energy=-37735.580121463325 pbc="F F F"
C        0.97252842      -0.10464066       0.07564075       0.00778271       0.00801855      -0.03515310       0.76074862      -0.08507946       0.24166755
C        1.06393669       1.41276875      -0.03714092       0.02971601       0.01946260       0.02386053      -0.00094076      -0.00783429      -0.00406201
H        2.11667662       1.64169786      -0.22954532       0.00913057       0.06561446      -0.01383129      -0.02076572       0.07203669      -0.01875551
Cl      -1.38011557      -0.04425532      -0.34983579      -0.02456139      -0.02339000       0.02962216      -0.18291794       0.00470650      -0.02636616
Cl       2.95046309      -0.39225370       0.84701304       0.02411526       0.03164376       0.02875614      -0.25516673       0.03167423      -0.09656895
H        0.55225068      -0.63995434       0.90345421      -0.01837047      -0.03895568       0.01579788      -0.19510864       0.03665872      -0.09290462
N        1.18589214      -0.84768033      -1.18796408       0.00127758      -0.01553791       0.00521980      -0.03375710       0.00727525      -0.00171284
O        1.59490769      -0.18800711      -2.14077713      -0.02695938       0.00412353      -0.01496551      -0.03209504       0.00431396      -0.00813655
O        1.01359481      -2.05539714      -1.15575867      -0.04324858       0.01801665      -0.02795711      -0.01900083       0.00666751       0.00327342
C        0.71799252       1.99060293       1.26349709       0.03448778      -0.05706379      -0.03360899      -0.01625712      -0.00614287      -0.00648716
N        0.47114772       2.47876716       2.30170328      -0.04012469       0.02337451       0.01229725       0.01115879      -0.00729862       0.00075215
C        0.30823242       2.08564266      -1.10095909      -0.00139840       0.03061029      -0.02685421      -0.03339484      -0.05534021      -0.00246096
N       -0.13393287       2.78954749      -1.93042658       0.04815299      -0.06591696       0.03681645       0.01749732      -0.00163742       0.01176163
13
Properties=species:S:1:pos:R:3:mp2_forces:R:3:forces:R:3 R1=NO2 R2=H R3=CN R4=CN lg=Cl nu=Cl rxn-id=918 mp2_energy=-37735.580111661155 energy=-37734.64990750359 free_energy=-37735.580121463325 pbc="F F F"
C        1.04068952      -0.11355866       0.09882704       0.00778271       0.00801855      -0.03515310       1.43727337      -0.18610840       0.48759134
C        1.06477275       1.41108643      -0.03690895       0.02971601       0.01946260       0.02386053       0.01803305      -0.03513871       0.00410203
H        2.11495854       1.64863228      -0.23149710       0.00913057       0.06561446      -0.01383129      -0.03655576       0.14704111      -0.04224620
Cl      -1.39729916      -0.04377611      -0.35176903      -0.02456139      -0.02339000       0.02962216      -0.36519684       0.00945337      -0.04564833