15
Properties=species:S:1:pos:R:3:mp2_forces:R:3:forces:R:3 R1=CH3 R2=H R3=CN R4=NH2 lg=Cl nu=Cl rxn-id=1852 mp2_energy=-32244.3672599729 energy=-32244.367243188757 free_energy=-32244.367243188757 pbc="F F F"
C        0.55257476      -0.04736792      -0.09131716       0.05722618       0.03680726      -0.03712831       0.05713802       0.03676301      -0.03711242
C        0.79628396       1.45584576      -0.11054395       0.03345547       0.04334048      -0.01148190       0.03344757       0.04327176      -0.01156813
H        1.88497066       1.53069920      -0.21741906       0.01440408       0.02920873       0.00092952       0.01441011       0.02923442       0.00093735
Cl      -1.20045461      -0.37106271       0.23595705      -0.03239991      -0.03095376      -0.01305909      -0.03231929      -0.03092972      -0.01307582
Cl       3.77332892      -0.14966293       0.63131634       0.01419807       0.06617808      -0.01970313       0.01420571       0.06617815      -0.01970127
H        1.11870374      -0.45719326       0.74173876      -0.04606705      -0.01533083       0.06185261      -0.04607701      -0.01531861       0.06183975
C        0.98569026      -0.71542163      -1.37755868      -0.00621990      -0.01012965      -0.04973112      -0.00617697      -0.01007716      -0.04969950
H        0.33378311      -0.44799633      -2.20990666       0.00668981       0.03693493       0.01943772       0.00668547       0.03693469       0.01943702
H        2.01047720      -0.40009847      -1.58163008      -0.02647423      -0.05659552       0.02203120      -0.02649878      -0.05661485       0.02201873
H        0.99223600      -1.79920872      -1.24427295      -0.05028671       0.01810404      -0.02041635      -0.05029411       0.01808488      -0.02041678
C        0.45239391       2.08174254       1.18353714      -0.00070514      -0.00695724       0.00889358      -0.00066861      -0.00701664       0.00882550
N        0.16401214       2.66716763       2.16087945      -0.03710269      -0.02116234      -0.02514101      -0.03713931      -0.02107749      -0.02502444
N        0.13698062       2.11001453      -1.24055329       0.01364509      -0.02987284       0.02323403       0.01364435      -0.02984911       0.02327769
H        0.35958922       3.09882459      -1.22193524       0.02876236      -0.03709856      -0.03825759       0.02875193      -0.03711725      -0.03826618
H       -0.86931350       2.02668391      -1.13814505       0.03087458      -0.02247278       0.07853984       0.03089093      -0.02246608       0.07852850
15
Properties=species:S:1:pos:R:3:mp2_forces:R:3:forces:R:3 R1=CH3 R2=H R3=CN R4=NH2 lg=Cl nu=Cl rxn-id=1852 mp2_energy=-32244.3672599729 energy=-32244.384366534814 free_energy=-32244.367243188757 pbc="F F F"
C        0.56735462      -0.04483208      -0.09790668       0.05722618       0.03680726      -0.03712831       0.00004342      -0.00553455       0.00351841
C        0.81633430       1.45884645      -0.11863559       0.03345547       0.04334048      -0.01148190      -0.00449911      -0.00474209       0.00241635
H        1.90006028       1.55472865      -0.25595822       0.01440408       0.02920873       0.00092952      -0.00403313      -0.00547663       0.00676470
Cl      -1.19883480      -0.35917952       0.20170372      -0.03239991      -0.03095376      -0.01305909       0.00374105      -0.01316385       0.01137193
Cl       3.73647941      -0.13910418       0.72692964       0.01419807       0.06617808      -0.01970313       0.02764226       0.03729455      -0.01941657
H        1.11109438      -0.46139150       0.74574791      -0.04606705      -0.01533083       0.06185261       0.00610978      -0.00408312       0.00030843
C        0.99093965      -0.70990835      -1.38967000      -0.00621990      -0.01012965      -0.04973112      -0.00429869      -0.00251298       0.00128338
H        0.34165328      -0.41335393      -2.21391001       0.00668981       0.03693493       0.01943772       0.01669216       0.03187963      -0.00255314
H        2.02053889      -0.41724273      -1.59609223      -0.02647423      -0.05659552       0.02203120       0.00862596      -0.03179847       0.02204350
H        0.96860223      -1.79396926      -1.27100615      -0.05028671       0.01810404      -0.02041635      -0.04290491      -0.00322008      -0.01449834
C        0.49376757       2.08592995       1.18000490      -0.00070514      -0.00695724       0.00889358      -0.01126180      -0.00470281       0.00035824
N        0.19648073       2.66689401       2.15692539      -0.03710269      -0.02116234      -0.02514101      -0.01986725      -0.00443033      -0.00220633
N        0.10662153       2.08320747      -1.22868059       0.01364509      -0.02987284       0.02323403      -0.00011111      -0.00305139       0.00006742
H        0.33010690       3.07002420      -1.26174492       0.02876236      -0.03709856      -0.03825759       0.02499147      -0.00957828      -0.01632149
H       -0.88994259       2.00231702      -1.05756055       0.03087458      -0.02247278       0.07853984      -0.00087011       0.02312042       0.00686351
15
Properties=species:S:1:pos:R:3:mp2_forces:R:3:forces:R:3 R1=CH3 R2=H R3=CN R4=NH2 lg=Cl nu=Cl rxn-id=1852 mp2_energy=-32244.3672599729 energy=-32244.384459011937 free_energy=-32244.367243188757 pbc="F F F"
C        0.56477157      -0.04464167      -0.09696217       0.05722618       0.03680726      -0.03712831      -0.00081151      -0.00523488       0.00248439
C        0.81646561       1.45863212      -0.11729486       0.03345547       0.04334048      -0.01148190      -0.00430656      -0.00464667       0.00191624
H        1.90041427       1.55292194      -0.25359920       0.01440408       0.02920873       0.00092952      -0.00335523      -0.00868350       0.00798351
Cl      -1.20418701      -0.35395791       0.19359208      -0.03239991      -0.03095376      -0.01305909       0.00469771      -0.01599882       0.01525671
Cl       3.73927306      -0.13132417       0.71319928       0.01419807       0.06617808      -0.01970313       0.02891339       0.03777513      -0.01826676
H        1.10282330      -0.46261522       0.74959193      -0.04606705      -0.01533083       0.06185261       0.00722902      -0.00334459      -0.00161835
C        0.99186211      -0.71056177      -1.38713992      -0.00621990      -0.01012965      -0.04973112      -0.00527171      -0.00237312       0.00030818
H        0.34327349      -0.41473138      -2.21203256       0.00668981       0.03693493       0.01943772       0.01768730       0.03053484      -0.00651847
H        2.02146988      -0.41719662      -1.59221768      -0.02647423      -0.05659552       0.02203120       0.00840010      -0.03166949       0.02333406
H        0.97015930      -1.79457569      -1.26814866      -0.05028671       0.01810404      -0.02041635      -0.04442916      -0.00344888      -0.01352331
C        0.49449630       2.08511643       1.18179586      -0.00070514      -0.00695724       0.00889358      -0.01150785      -0.00425584      -0.00047863
N        0.19966249       2.66440367       2.16046694      -0.03710269      -0.02116234      -0.02514101      -0.02212384      -0.00409647      -0.00375046
N        0.10906406       2.08300466      -1.22874412       0.01364509      -0.02987284       0.02323403       0.00034161      -0.00203577      -0.00012737
H        0.32961294       3.07044001      -1.25933204       0.02876236      -0.03709856      -0.03825759       0.02518133      -0.00780193      -0.01668631
H       -0.88790498       1.99805180      -1.06302824       0.03087458      -0.02247278       0.07853984      -0.00064460       0.02527999       0.00968658
15
Properties=species:S:1:pos:R:3:mp2_forces:R:3:forces:R:3 R1=CH3 R2=H R3=CN R4=NH2 lg=Cl nu=Cl rxn-id=1852 mp2_energy=-32244.3672599729 energy=-32244.371472282794 free_energy=-32244.367243188757 pbc="F F F"
C        0.56205137      -0.03725759      -0.09913741       0.05722618       0.03680726      -0.03712831      -0.00220789      -0.00751551       0.00172435
C        0.82276297       1.46450932      -0.11644000       0.03345547       0.04334048      -0.01148190      -0.00964202      -0.00682645      -0.00053772
H        1.90685599       1.55496286      -0.25373475       0.01440408       0.02920873       0.00092952      -0.00864156      -0.01417249       0.00751320
Cl      -1.21371010      -0.33573669       0.16913931      -0.03239991      -0.03095376      -0.01305909       0.00769852      -0.02331564       0.02832113
Cl       3.70230088      -0.16093561       0.70202233       0.01419807       0.06617808      -0.01970313       0.05627657       0.03602789      -0.00530342
H        1.08578185      -0.45838688       0.75457337      -0.04606705      -0.01533083       0.06185261       0.01369046      -0.00289461      -0.00581260
C        0.99872677      -0.70878394      -1.38405477      -0.00621990      -0.01012965      -0.04973112      -0.00945721      -0.00291461      -0.00159365
H        0.32825284      -0.45482019      -2.20523016       0.00668981       0.03693493       0.01943772       0.01624352       0.03727420      -0.01280923
H        2.01318758      -0.38353563      -1.61200075      -0.02647423      -0.05659552       0.02203120       0.00850525      -0.03178813       0.03041127
H        1.02050429      -1.79029097      -1.24397178      -0.05028671       0.01810404      -0.02041635      -0.05317796      -0.00761546      -0.01812480
C        0.50675662       2.08961314       1.18501653      -0.00070514      -0.00695724       0.00889358      -0.01736889      -0.00504743      -0.00334241
N        0.21866784       2.66548735       2.16776709      -0.03710269      -0.02116234      -0.02514101      -0.02623715      -0.00305433      -0.00770563
N        0.11494105       2.08716480      -1.22769888       0.01364509      -0.02987284       0.02323403      -0.00196069       0.00014600      -0.00342114
H        0.30497166       3.08142671      -1.24050068       0.02876236      -0.03709856      -0.03825759       0.03167728      -0.00470943      -0.01691505
H       -0.88079522       1.96954951      -1.07560281       0.03087458      -0.02247278       0.07853984      -0.00539823       0.03640601       0.00759571
15
Properties=species:S:1:pos:R:3:mp2_forces:R:3:forces:R:3 R1=CH3 R2=H R3=CN R4=NH2 lg=Cl nu=Cl rxn-id=1852 mp2_energy=-32244.3672599729 energy=-32244.345880807814 free_energy=-32244.367243188757 pbc="F F F"
C        0.56547834      -0.02510987      -0.10175939       0.05722618       0.03680726      -0.03712831      -0.01035620      -0.01158985      -0.00054319
C        0.83764255       1.47525555      -0.11381590       0.03345547       0.04334048      -0.01148190      -0.02507037      -0.01257432      -0.00524066
H        1.92082663       1.57148888      -0.25454611       0.01440408       0.02920873       0.00092952      -0.02151993      -0.04652294       0.00564147
Cl      -1.22057862      -0.30262218       0.13659154      -0.03239991      -0.03095376      -0.01305909       0.00777677      -0.04277419       0.04798123
Cl       3.64052618      -0.20857854       0.69384322       0.01419807       0.06617808      -0.01970313       0.10937426       0.02900174       0.01761960
H        1.06554863      -0.45361972       0.76252441      -0.04606705      -0.01533083       0.06185261       0.03616568       0.00456023      -0.02046092
C        1.00981427      -0.70489657      -1.38207469      -0.00621990      -0.01012965      -0.04973112      -0.02162902      -0.00216241      -0.00356482
H        0.30776885      -0.50346305      -2.19085002       0.00668981       0.03693493       0.01943772       0.01365734       0.03873478      -0.02853666
H        2.00116576      -0.34395570      -1.65188912      -0.02647423      -0.05659552       0.02203120       0.00285336      -0.02124897       0.06067587
H        1.08418828      -1.78066504      -1.21612064      -0.05028671       0.01810404      -0.02041635      -0.05855294      -0.00831201      -0.02209244
C        0.52399736       2.09701690       1.19032194      -0.00070514      -0.00695724       0.00889358      -0.02685140      -0.00649441      -0.00947819
N        0.23411387       2.66598379       2.17662907      -0.03710269      -0.02116234      -0.02514101      -0.02348841       0.00140310      -0.01128422
N        0.12137007       2.08561922      -1.22477838       0.01364509      -0.02987284       0.02323403      -0.00689892       0.01066361      -0.00840313
H        0.26873436       3.08645205      -1.22601781       0.02876236      -0.03709856      -0.03825759       0.04172720       0.00688552      -0.01112877
H       -0.86934013       1.92406046      -1.07791149       0.03087458      -0.02247278       0.07853984      -0.01718741       0.06043013      -0.01118516
15
Properties=species:S:1:pos:R:3:mp2_forces:R:3:forces:R:3 R1=CH3 R2=H R3=CN R4=NH2 lg=Cl nu=Cl rxn-id=1852 mp2_energy=-32244.3672599729 energy=-32244.307999070734 free_energy=-32244.367243188757 pbc="F F F"
C        0.57071352      -0.01744461      -0.10157368       0.05722618       0.03680726      -0.03712831      -0.03182521      -0.00912349      -0.00924442
C        0.85295462       1.48345758      -0.11172853       0.03345547       0.04334048      -0.01148190      -0.04572033      -0.01788797      -0.00940486
H        1.93281259       1.60110276      -0.26287713       0.01440408       0.02920873       0.00092952      -0.03232043      -0.12172098       0.01611280
Cl      -1.22721463      -0.26994321       0.10018166      -0.03239991      -0.03095376      -0.01305909       0.01012111      -0.05946391       0.06238427
Cl       3.56821768      -0.23078370       0.68543427       0.01419807       0.06617808      -0.01970313       0.18892086       0.01316286       0.04786544
H        1.03513167      -0.45678887       0.77810376      -0.04606705      -0.01533083       0.06185261       0.08380038       0.02780798      -0.05077023
C        1.02465008      -0.70383086      -1.37850049      -0.00621990      -0.01012965      -0.04973112      -0.04785577       0.00399797      -0.00816457
H        0.29500034      -0.53229394      -2.16814361       0.00668981       0.03693493       0.01943772       0.01600404       0.01737379      -0.07286402
H        1.99601872      -0.32198029      -1.69018296      -0.02647423      -0.05659552       0.02203120      -0.01123494       0.00428277       0.11118748
H        1.13380375      -1.77542009      -1.20152669      -0.05028671       0.01810404      -0.02041635      -0.06775622       0.00248554      -0.01082097
C        0.54493179       2.10015275       1.19643304      -0.00070514      -0.00695724       0.00889358      -0.03517453       0.00213359      -0.01083868
N        0.25957467       2.66505804       2.18657264      -0.03710269      -0.02116234      -0.02514101      -0.02550582       0.00138263      -0.01691156
N        0.12571558       2.07998471      -1.22076046       0.01364509      -0.02987284       0.02323403      -0.01278683       0.02401462      -0.01324636
H        0.23741759       3.08437576      -1.21139865       0.02876236      -0.03709856      -0.03825759       0.03990490       0.02198027      -0.01201839
H       -0.85847159       1.87732015      -1.07988655       0.03087458      -0.02247278       0.07853984      -0.02857122       0.08957432      -0.02326595
15
Properties=species:S:1:pos:R:3:mp2_forces:R:3:forces:R:3 R1=CH3 R2=H R3=CN R4=NH2 lg=Cl nu=Cl rxn-id=1852 mp2_energy=-32244.3672599729 energy=-32244.191227062205 free_energy=-32244.367243188757 pbc="F F F"
C        0.59343931      -0.01277073      -0.09333860       0.05722618       0.03680726      -0.03712831      -0.25091460      -0.00314688      -0.03025904
C        0.88358814       1.49447255      -0.10500835       0.03345547       0.04334048      -0.01148190      -0.12254778      -0.03352425      -0.01097542
H        1.95438908       1.68344113      -0.27088253       0.01440408       0.02920873       0.00092952      -0.05889785      -0.29749761       0.03137530
Cl      -1.23279635      -0.23311756       0.06191611      -0.03239991      -0.03095376      -0.01305909       0.15292714      -0.04742748       0.03675117
Cl       3.44299046      -0.23517535       0.64652052       0.01419807       0.06617808      -0.01970313       0.40118151      -0.03167995       0.12215711
H        0.98465208      -0.47583924       0.81293140      -0.04606705      -0.01533083       0.06185261       0.21540867       0.09708873      -0.12522622
C        1.05534428      -0.70683599      -1.37246514      -0.00621990      -0.01012965      -0.04973112      -0.13632596       0.01730418      -0.00156632
H        0.28315620      -0.54070471      -2.11851820       0.00668981       0.03693493       0.01943772       0.02138258      -0.04241007      -0.18484583
H        2.00382181      -0.32913581      -1.76202737      -0.02647423      -0.05659552       0.02203120      -0.05159699       0.07471942       0.23861886
H        1.17404784      -1.77790309      -1.19670298      -0.05028671       0.01810404      -0.02041635      -0.07186658       0.02315620       0.02088790
C        0.56357318       2.09911041       1.20571140      -0.00070514      -0.00695724       0.00889358      -0.02695626       0.01353474      -0.02409361
N        0.27012931       2.66234016       2.19379370      -0.03710269      -0.02116234      -0.02514101      -0.03189818       0.01230026       0.00627757
N        0.13604563       2.06352144      -1.21135771       0.01364509      -0.02987284       0.02323403      -0.02513944       0.04944300      -0.02102799
H        0.21736646       3.06922525      -1.20407949       0.02876236      -0.03709856      -0.03825759       0.03182859       0.04303644      -0.01328553
H       -0.83849105       1.82233774      -1.06634615       0.03087458      -0.02247278       0.07853984      -0.04658483       0.12510329      -0.04478795
15
Properties=species:S:1:pos:R:3:mp2_forces:R:3:forces:R:3 R1=CH3 R2=H R3=CN R4=NH2 lg=Cl nu=Cl rxn-id=1852 mp2_energy=-32244.3672599729 energy=-32243.88197930683 free_energy=-32244.367243188757 pbc="F F F"
C        0.66967108      -0.01156554      -0.08422102       0.05722618       0.03680726      -0.03712831      -1.70428676      -0.06219342      -0.03643374
C        0.92088909       1.50528117      -0.10086408       0.03345547       0.04334048      -0.01148190      -0.20361528      -0.08407934      -0.00262235
H        1.97223194       1.77474884      -0.27890860       0.01440408       0.02920873       0.00092952      -0.03108787      -0.35923729       0.03183084
Cl      -1.27865874      -0.21940952       0.05231916      -0.03239991      -0.03095376      -0.01305909       1.01394669       0.06716652      -0.08964841
Cl       3.32262996      -0.22437760       0.60676029       0.01419807       0.06617808      -0.01970313       0.67622222      -0.08081148       0.20632483
H        0.91860834      -0.50515953       0.85133340      -0.04606705      -0.01533083       0.06185261       0.52790312       0.15998214      -0.15424519
C        1.09687332      -0.71254963      -1.37192489      -0.00621990      -0.01012965      -0.04973112      -0.21142340       0.03584675       0.06442603
H        0.27629773      -0.52712491      -2.06264856       0.00668981       0.03693493       0.01943772       0.06114194      -0.09716326      -0.27136205
H        2.01959875      -0.35348406      -1.83459306      -0.02647423      -0.05659552       0.02203120      -0.05114043       0.11365604       0.28498542
H        1.19436029      -1.78571975      -1.20308645      -0.05028671       0.01810404      -0.02041635      -0.04525551       0.02997247       0.03101285
C        0.57178677       2.09277190       1.20963435      -0.00070514      -0.00695724       0.00889358       0.01172729       0.05178086       0.01059284
N        0.27675353       2.66007497       2.19579825      -0.03710269      -0.02116234      -0.02514101      -0.03392397      -0.00515089      -0.00899881
N        0.14469255       2.04865447      -1.20531862       0.01364509      -0.02987284       0.02323403      -0.00467600       0.06130198       0.00230559
H        0.20899249       3.05630942      -1.20056914       0.02876236      -0.03709856      -0.03825759       0.02292625       0.03654853      -0.01670268
H       -0.82347072       1.78451597      -1.05356440       0.03087458      -0.02247278       0.07853984      -0.02845830       0.13238039      -0.05146517
15
Properties=species:S:1:pos:R:3:mp2_forces:R:3:forces:R:3 R1=CH3 R2=H R3=CN R4=NH2 lg=Cl nu=Cl rxn-id=1852 mp2_energy=-32244.3672599729 energy=-32243.53839474206 free_energy=-32244.367243188757 pbc="F F F"
C        0.77128172      -0.00788145      -0.08203362       0.05722618       0.03680726      -0.03712831      -1.94216811      -0.04207310      -0.11089456
C        0.93296769       1.51027045      -0.10071098       0.03345547       0.04334048      -0.01148190      -0.09243660      -0.06315758       0.00175710
H        1.97414809       1.79646228      -0.28047831       0.01440408       0.02920873       0.00092952       0.00985836      -0.23010590       0.02334282
Cl      -1.33912197      -0.22361608       0.05812479      -0.03239991      -0.03095376      -0.01305909       0.90446885       0.06252589      -0.07498385
Cl       3.28258452      -0.21939592       0.59403503       0.01419807       0.06617808      -0.01970313       0.58886394      -0.07119752       0.17849959
H        0.88758151      -0.51462792       0.86050994      -0.04606705      -0.01533083       0.06185261       0.57564630       0.09718129      -0.04215372
C        1.10932839      -0.71476947      -1.37574446      -0.00621990      -0.01012965      -0.04973112      -0.07873023       0.02253243       0.04883261
H        0.27259299      -0.52125437      -2.04655209       0.00668981       0.03693493       0.01943772       0.05822606      -0.07362981      -0.19181117
H        2.02267147      -0.36057488      -1.85167206      -0.02647423      -0.05659552       0.02203120      -0.01065818       0.07437454       0.18376722
H        1.19665833      -1.78761574      -1.20493996      -0.05028671       0.01810404      -0.02041635      -0.02023703       0.01285604       0.01494119
C        0.57046922       2.09003529       1.20976435      -0.00070514      -0.00695724       0.00889358       0.01440133       0.05045786       0.02326347
N        0.27842005       2.65988491       2.19565406      -0.03710269      -0.02116234      -0.02514101      -0.02333049      -0.00810606      -0.01363394
N        0.14521117       2.04503550      -1.20547820       0.01364509      -0.02987284       0.02323403       0.01103025       0.04788511       0.01138205
H        0.20804826       3.05415736      -1.19971042       0.02876236      -0.03709856      -0.03825759       0.01779112       0.02481634      -0.01447858
H       -0.82158504       1.77685624      -1.05062144       0.03087458      -0.02247278       0.07853984      -0.01272558       0.09564048      -0.03783023
15
Properties=species:S:1:pos:R:3:mp2_forces:R:3:forces:R:3 R1=CH3 R2=H R3=CN R4=NH2 lg=Cl nu=Cl rxn-id=1852 mp2_energy=-32244.3672599729 energy=-32243.332919713215 free_energy=-32244.367243188757 pbc="F F F"
C        0.86664288      -0.00577559      -0.07664880       0.05722618       0.03680726      -0.03712831      -0.97173004       0.00223518      -0.10376167
C        0.93753500       1.51333506      -0.10088660       0.03345547       0.04334048      -0.01148190      -0.02280944      -0.01564325       0.00086938
H        1.97374322       1.80789117      -0.28143143       0.01440408       0.02920873       0.00092952       0.01178984      -0.10184034       0.01500671
Cl      -1.38366904      -0.22677230       0.06203741      -0.03239991      -0.03095376      -0.01305909       0.34108440       0.01769798      -0.02431536
Cl       3.25389076      -0.21583992       0.58502564       0.01419807       0.06617808      -0.01970313       0.29965906      -0.03614798       0.08876776
H        0.85955483      -0.51931509       0.86257957      -0.04606705      -0.01533083       0.06185261       0.32195471       0.02785057       0.02211272
C        1.11312048      -0.71594159      -1.37813531      -0.00621990      -0.01012965      -0.04973112      -0.01005824       0.00253424       0.00882940
H        0.26966199      -0.51768205      -2.03719504       0.00668981       0.03693493       0.01943772       0.02819807      -0.03530163      -0.08676720
H        2.02316126      -0.36435085      -1.86075377      -0.02647423      -0.05659552       0.02203120       0.00096255       0.03132702       0.08301507
H        1.19748860      -1.78829558      -1.20562482      -0.05028671       0.01810404      -0.02041635      -0.00852462       0.00378222       0.00732479
C        0.56916338       2.08825041       1.20995853      -0.00070514      -0.00695724       0.00889358       0.00715533       0.02361026       0.00967484
N        0.27959431       2.65954095       2.19521572      -0.03710269      -0.02116234      -0.02514101      -0.01578116      -0.00194626      -0.00161307
N        0.14483043       2.04272451      -1.20606456       0.01364509      -0.02987284       0.02323403       0.00934143       0.02551254       0.00763982
H        0.20735675       3.05297696      -1.19906551       0.02876236      -0.03709856      -0.03825759       0.01120239       0.01259409      -0.00863233
H       -0.82081845       1.77222011      -1.04886441       0.03087458      -0.02247278       0.07853984      -0.00244427       0.04373535      -0.01815087
15
Properties=species:S:1:pos:R:3:mp2_forces:R:3:forces:R:3 R1=CH3 R2=H R3=CN R4=NH2 lg=Cl nu=Cl rxn-id=1852 mp2_energy=-32244.3672599729 energy=-32243.28391566603 free_energy=-32244.367243188757 pbc="F F F"
C        0.96861671      -0.00586327      -0.06592649       0.05722618       0.03680726      -0.03712831       0.28068756      -0.00300832       0.03672600
C        0.93995038       1.51500716      -0.10098946       0.03345547       0.04334048      -0.01148190       0.00889846       0.00151025       0.00149010
H        1.97260560       1.81884088      -0.28254800       0.01440408       0.02920873       0.00092952      -0.00209278       0.03443009       0.00066034
Cl      -1.41971530      -0.22882981       0.06509746      -0.03239991      -0.03095376      -0.01305909      -0.09583893      -0.00719604       0.01276839
Cl       3.22289584      -0.21195764       0.57521294       0.01419807       0.06617808      -0.01970313      -0.09657394       0.01247224      -0.03541185
H        0.82621951      -0.52206278       0.86029866      -0.04606705      -0.01533083       0.06185261      -0.08466166      -0.00086913      -0.01437857
C        1.11403633      -0.71634563      -1.37904584      -0.00621990      -0.01012965      -0.04973112       0.00285567      -0.00048677       0.00248114
H        0.26653488      -0.51409581      -2.02821078       0.00668981       0.03693493       0.01943772      -0.00940022       0.00938591       0.02504123
H        2.02297875      -0.36788983      -1.86960888      -0.02647423      -0.05659552       0.02203120      -0.00126670      -0.01191073      -0.02737700
H        1.19808192      -1.78879973      -1.20629142      -0.05028671       0.01810404      -0.02041635      -0.00071215      -0.00228344      -0.00129115
C        0.56775414       2.08614909       1.20982285      -0.00070514      -0.00695724       0.00889358      -0.00696300      -0.00734590      -0.00068480
N        0.28082646       2.65915058       2.19473297      -0.03710269      -0.02116234      -0.02514101      -0.00200225      -0.00287430      -0.00096097
N        0.14419850       2.04013597      -1.20690502       0.01364509      -0.02987284       0.02323403       0.00198019      -0.00761478      -0.00298005
H        0.20655169       3.05175780      -1.19828543       0.02876236      -0.03709856      -0.03825759       0.00096080      -0.00316478       0.00183865
H       -0.82027902       1.76776921      -1.04720692       0.03087458      -0.02247278       0.07853984       0.00412896      -0.01104429       0.00207853
15
Properties=species:S:1:pos:R:3:mp2_forces:R:3:forces:R:3 R1=CH3 R2=H R3=CN R4=NH2 lg=Cl nu=Cl rxn-id=1852 mp2_energy=-32244.3672599729 energy=-32243.411620217925 free_energy=-32244.367243188757 pbc="F F F"
C        1.06922456      -0.00920998      -0.04878616       0.05722618       0.03680726      -0.03712831       1.42450690      -0.04553085       0.24083878
C        0.94398135       1.51389667      -0.10023754       0.03345547       0.04334048      -0.01148190       0.05683444      -0.01461963       0.01194004
H        1.97176565       1.83101984      -0.28422659       0.01440408       0.02920873       0.00092952      -0.01155534       0.17442546      -0.01914479
Cl      -1.45148427      -0.23051068       0.06766052      -0.03239991      -0.03095376      -0.01305909      -0.45125756      -0.02566174       0.04097192
Cl       3.18105871      -0.20721222       0.56265556       0.01419807       0.06617808      -0.01970313      -0.58780710       0.06746802      -0.18195175
H        0.79593932      -0.52116704       0.85181505      -0.04606705      -0.01533083       0.06185261      -0.42591693       0.01451717      -0.11960823
C        1.11616394      -0.71534529      -1.37646670      -0.00621990      -0.01012965      -0.04973112       0.02871296       0.01285129       0.03676066
H        0.26408922      -0.50994093      -2.01831735       0.00668981       0.03693493       0.01943772      -0.03636860       0.05722733       0.13896178
H        2.02286719      -0.37129837      -1.87942152      -0.02647423      -0.05659552       0.02203120      -0.00264263      -0.05021795      -0.14042680
H        1.19872470      -1.78923276      -1.20723963      -0.05028671       0.01810404      -0.02041635       0.00708509      -0.00710446      -0.01245534
C        0.56673257       2.08366275       1.20930975      -0.00070514      -0.00695724       0.00889358      -0.01545895      -0.04040769      -0.01468264