17
Properties=species:S:1:pos:R:3:mp2_forces:R:3:forces:R:3 R1=CH3 R2=H R3=NH2 R4=CH3 lg=F nu=Br rxn-id=1940 mp2_energy=-78512.0664919545 energy=-78512.06649041991 free_energy=-78512.06649041991 pbc="F F F"
C        0.58885687      -0.02119248      -0.10810665      -0.03285624       0.03649944      -0.03751964      -0.03285433       0.03645465      -0.03755953
C        0.85196944       1.48256734      -0.12369220      -0.01014254      -0.01723831      -0.01402659      -0.01010450      -0.01726252      -0.01403757
H        1.88972196       1.60321167      -0.46477361      -0.00255762      -0.00725762      -0.00668911      -0.00256845      -0.00725598      -0.00667806
F       -0.80365667      -0.25366825      -0.17147188      -0.01935054      -0.05120953       0.03470906      -0.01933309      -0.05119362       0.03473803
Br       3.66685366       0.02175550       1.64753368       0.03913283       0.05333915       0.02360315       0.03913026       0.05334090       0.02360405
H        0.93472282      -0.43002873       0.84144063       0.00448881       0.01672180      -0.04160036       0.00447158       0.01673236      -0.04161218
C        1.23339489      -0.76621706      -1.25517279       0.00088863      -0.00755154       0.02111083       0.00086496      -0.00752594       0.02112458
H        0.80940966      -0.44864852      -2.21232348       0.02735666       0.01867011      -0.00574707       0.02736180       0.01866890      -0.00574055
H        2.31005518      -0.59579743      -1.24209368       0.00125620       0.01292024       0.03906550       0.00127191       0.01291944       0.03906091
H        1.06383916      -1.83809471      -1.13731061      -0.06429492      -0.03069334      -0.04495784      -0.06429601      -0.03069512      -0.04495710
N        0.67675669       2.00257565       1.23589425       0.00962916      -0.06837492       0.03322930       0.00957674      -0.06836117       0.03322083
H        0.88713356       2.99555291       1.22158860       0.00788409       0.04130515      -0.01044572       0.00790373       0.04132226      -0.01045066
H        1.41703713       1.57156387       1.79079434       0.00018009       0.00445397      -0.00523589       0.00019898       0.00442870      -0.00521830
C       -0.09153440       2.21393152      -1.06988031       0.00195288      -0.02003772      -0.00279109       0.00194394      -0.02001555      -0.00279705
H       -0.04787998       1.81266248      -2.08592471       0.03145031      -0.00269373       0.00290898       0.03145282      -0.00269767       0.00290843
H       -1.11241569       2.11896000      -0.70170422      -0.02450350       0.00895942       0.01510884      -0.02450791       0.00895371       0.01511482
H        0.16364731       3.27743856      -1.11696055       0.02948572       0.01218743      -0.00072237       0.02948757       0.01218666      -0.00072066
17
Properties=species:S:1:pos:R:3:mp2_forces:R:3:forces:R:3 R1=CH3 R2=H R3=NH2 R4=CH3 lg=F nu=Br rxn-id=1940 mp2_energy=-78512.0664919545 energy=-78512.10694216985 free_energy=-78512.06649041991 pbc="F F F"
C        0.63954193      -0.04040863      -0.10502003      -0.03285624       0.03649944      -0.03751964       0.00358276      -0.00168423      -0.00298906
C        0.87856839       1.46310664      -0.11560011      -0.01014254      -0.01723831      -0.01402659       0.00156580      -0.00136800      -0.00265291
H        1.92256358       1.59213568      -0.42736440      -0.00255762      -0.00725762      -0.00668911       0.00089621       0.00120156      -0.00519878
F       -0.73805473      -0.30014275       0.03635593      -0.01935054      -0.05120953       0.03470906       0.00447507      -0.00175579       0.00651839
Br       3.61958145       0.20904629       1.97997058       0.03913283       0.05333915       0.02360315       0.01685882       0.02177595       0.04167029
H        1.13468607      -0.45391934       0.77535985       0.00448881       0.01672180      -0.04160036       0.00828916      -0.00201628      -0.00586724
C        1.13544520      -0.75196370      -1.34464002       0.00088863      -0.00755154       0.02111083      -0.00635121      -0.00083150      -0.00669842
H        0.59848129      -0.40971960      -2.23232754       0.02735666       0.01867011      -0.00574707      -0.00255231       0.01148579      -0.00555852
H        2.20293468      -0.57499317      -1.46841501       0.00125620       0.01292024       0.03906550      -0.00324187      -0.01405975      -0.00669709
H        0.97159013      -1.82718225      -1.23973044      -0.06429492      -0.03069334      -0.04495784      -0.02219792      -0.00014178      -0.01252103
N        0.66092167       1.99264578       1.23603695       0.00962916      -0.06837492       0.03322930       0.00096354      -0.00458205      -0.00128097
H        0.88244236       2.98549569       1.21800045       0.00788409       0.04130515      -0.01044572      -0.00712213      -0.00279073       0.00121683
H        1.38020524       1.56558206       1.82337808       0.00018009       0.00445397      -0.00523589       0.00260114      -0.00166541      -0.00097635
C       -0.03812170       2.18301989      -1.09289109       0.00195288      -0.02003772      -0.00279109       0.00047174      -0.00105782      -0.00012185
H        0.06576872       1.79704081      -2.10812734       0.03145031      -0.00269373       0.00290898      -0.00217091      -0.00170525      -0.00020776
H       -1.07555847       2.06409460      -0.77051736      -0.02450350       0.00895942       0.01510884       0.00110426       0.00085364       0.00279223
H        0.19691577       3.25273432      -1.11663170       0.02948572       0.01218743      -0.00072237       0.00282784      -0.00165833      -0.00142777
17
Properties=species:S:1:pos:R:3:mp2_forces:R:3:forces:R:3 R1=CH3 R2=H R3=NH2 R4=CH3 lg=F nu=Br rxn-id=1940 mp2_energy=-78512.0664919545 energy=-78512.09242099896 free_energy=-78512.06649041991 pbc="F F F"
C        0.63903250      -0.03021938      -0.09693618      -0.03285624       0.03649944      -0.03751964       0.01034221      -0.00230903      -0.00294777
C        0.87424980       1.47255770      -0.11408672      -0.01014254      -0.01723831      -0.01402659       0.00699162      -0.00204443      -0.00122535
H        1.92043328       1.60120042      -0.41739324      -0.00255762      -0.00725762      -0.00668911       0.00700979       0.00097083      -0.00165374
F       -0.73637551      -0.29666841       0.05464804      -0.01935054      -0.05120953       0.03470906       0.01181334      -0.00192743       0.01609327
Br       3.62077163       0.09319154       1.97898942       0.03913283       0.05333915       0.02360315      -0.01690029       0.04388883       0.03951772
H        1.14258899      -0.43698034       0.78160518       0.00448881       0.01672180      -0.04160036       0.02322497      -0.00344884      -0.01111313
C        1.12920925      -0.74411334      -1.33819542       0.00088863      -0.00755154       0.02111083      -0.00874604      -0.00018818      -0.01105623
H        0.48786498      -0.50938169      -2.19162164       0.02735666       0.01867011      -0.00574707       0.00260141       0.02842543      -0.01001135
H        2.15584818      -0.45419056      -1.55627181       0.00125620       0.01292024       0.03906550       0.00075802      -0.02818685      -0.00382806
H        1.10643462      -1.82484206      -1.17726486      -0.06429492      -0.03069334      -0.04495784      -0.04341333      -0.00125324      -0.02430391
N        0.64802705       2.00258243       1.23657351       0.00962916      -0.06837492       0.03322930       0.00350631      -0.00549534      -0.00084827
H        0.87966977       2.99311780       1.22392437       0.00788409       0.04130515      -0.01044572      -0.00297256      -0.00409388       0.00183993
H        1.35511835       1.56450123       1.83193663       0.00018009       0.00445397      -0.00523589       0.00474338      -0.00300600      -0.00081649
C       -0.02589759       2.18805392      -1.10878998       0.00195288      -0.02003772      -0.00279109       0.00175020      -0.00447310       0.00182509
H        0.11419770       1.81053456      -2.12336070       0.03145031      -0.00269373       0.00290898      -0.00449271      -0.00700912       0.00236564
H       -1.07089374       2.05639453      -0.81803387      -0.02450350       0.00895942       0.01510884       0.00355123      -0.00529320       0.00860531
H        0.19763233       3.26083397      -1.11788592       0.02948572       0.01218743      -0.00072237       0.00023244      -0.00455645      -0.00244266
17
Properties=species:S:1:pos:R:3:mp2_forces:R:3:forces:R:3 R1=CH3 R2=H R3=NH2 R4=CH3 lg=F nu=Br rxn-id=1940 mp2_energy=-78512.0664919545 energy=-78512.08677602123 free_energy=-78512.06649041991 pbc="F F F"
C        0.62464275      -0.03155917      -0.09412150      -0.03285624       0.03649944      -0.03751964       0.00729498      -0.00251894      -0.00278890
C        0.86858095       1.47006158      -0.10758225      -0.01014254      -0.01723831      -0.01402659       0.00693066      -0.00266213       0.00107398
H        1.91776029       1.59227945      -0.40280576      -0.00255762      -0.00725762      -0.00668911       0.00771874      -0.00224745       0.00383096
F       -0.75516354      -0.29122262       0.02504141      -0.01935054      -0.05120953       0.03470906       0.00782528       0.00135001       0.00897364
Br       3.63638019       0.10320375       1.87434083       0.03913283       0.05333915       0.02360315      -0.01323035       0.04843258       0.02278105
H        1.10548040      -0.44183003       0.79540750       0.00448881       0.01672180      -0.04160036       0.01480528      -0.00551531      -0.00889565
C        1.14221486      -0.74735663      -1.32276058       0.00088863      -0.00755154       0.02111083      -0.00634336      -0.00082817      -0.00923261
H        0.52175278      -0.51070825      -2.19191378       0.02735666       0.01867011      -0.00574707       0.01197188       0.02750369      -0.00811707
H        2.17491918      -0.45891379      -1.51281333       0.00125620       0.01292024       0.03906550       0.00044599      -0.03344840      -0.00070942
H        1.11401578      -1.82803999      -1.16301972      -0.06429492      -0.03069334      -0.04495784      -0.04469399       0.00200121      -0.02454096
N        0.63864268       1.99846888       1.24220229       0.00962916      -0.06837492       0.03322930       0.00209700      -0.00385664       0.00067847
H        0.86657786       2.98988198       1.23015737       0.00788409       0.04130515      -0.01044572      -0.00162538      -0.00302151       0.00057456
H        1.34987258       1.56376467       1.83402193       0.00018009       0.00445397      -0.00523589       0.00298168      -0.00022063       0.00176164
C       -0.02307805       2.19237194      -1.10565639       0.00195288      -0.02003772      -0.00279109       0.00261371      -0.00500051       0.00299271
H        0.10699118       1.80553050      -2.11834078       0.03145031      -0.00269373       0.00290898      -0.00314492      -0.00731777       0.00424232
H       -1.06924135       2.07924998      -0.81123717      -0.02450350       0.00895942       0.01510884       0.00511091      -0.00737743       0.00914280
H        0.21756304       3.26139008      -1.12308324       0.02948572       0.01218743      -0.00072237      -0.00075812      -0.00527260      -0.00176751
17
Properties=species:S:1:pos:R:3:mp2_forces:R:3:forces:R:3 R1=CH3 R2=H R3=NH2 R4=CH3 lg=F nu=Br rxn-id=1940 mp2_energy=-78512.0664919545 energy=-78512.10302556136 free_energy=-78512.06649041991 pbc="F F F"
C        0.65263806      -0.03408996      -0.09748846      -0.03285624       0.03649944      -0.03751964       0.00930278      -0.00020876      -0.00367312
C        0.87952175       1.47017376      -0.11796274      -0.01014254      -0.01723831      -0.01402659       0.00757873      -0.00215154       0.00002339
H        1.92388462       1.60509986      -0.42568800      -0.00255762      -0.00725762      -0.00668911       0.01104331      -0.00523171       0.00627280
F       -0.71722392      -0.30639236       0.08689589      -0.01935054      -0.05120953       0.03470906       0.00857413       0.00007905       0.00694496
Br       3.59753565       0.13261883       2.03537231       0.03913283       0.05333915       0.02360315      -0.01383387       0.03739169       0.03377919
H        1.17862005      -0.43842495       0.76922796       0.00448881       0.01672180      -0.04160036       0.01684137      -0.00242737      -0.01030375
C        1.11848169      -0.74270932      -1.35016266       0.00088863      -0.00755154       0.02111083      -0.00553718       0.00073672      -0.00958398
H        0.49000206      -0.46901998      -2.20201093       0.02735666       0.01867011      -0.00574707       0.00539687       0.01460573      -0.00504444
H        2.15584176      -0.48428474      -1.55777072       0.00125620       0.01292024       0.03906550      -0.00376716      -0.02711043      -0.01182567
H        1.05513783      -1.82533897      -1.21004005      -0.06429492      -0.03069334      -0.04495784      -0.03530661       0.01046146      -0.01591259
N        0.65218768       1.99926469       1.23287551       0.00962916      -0.06837492       0.03322930       0.00380747      -0.00503892      -0.00051416
H        0.88417432       2.98956937       1.22286974       0.00788409       0.04130515      -0.01044572      -0.00012956      -0.00611565      -0.00108669
H        1.35691082       1.55967863       1.82928585       0.00018009       0.00445397      -0.00523589       0.00524870      -0.00058389       0.00255242
C       -0.02626388       2.18198953      -1.10954725       0.00195288      -0.02003772      -0.00279109       0.00062163      -0.00309462       0.00192254
H        0.10974415       1.80485183      -2.12458072       0.03145031      -0.00269373       0.00290898      -0.00574403      -0.00302099       0.00199717
H       -1.06947708       2.04862297      -0.81316680      -0.02450350       0.00895942       0.01510884       0.00127370      -0.00582294       0.00629437
H        0.19619604       3.25496312      -1.12027211       0.02948572       0.01218743      -0.00072237      -0.00537027      -0.00246783      -0.00184245
17
Properties=species:S:1:pos:R:3:mp2_forces:R:3:forces:R:3 R1=CH3 R2=H R3=NH2 R4=CH3 lg=F nu=Br rxn-id=1940 mp2_energy=-78512.0664919545 energy=-78512.07666599749 free_energy=-78512.06649041991 pbc="F F F"
C        0.59447776      -0.03117353      -0.09079057      -0.03285624       0.03649944      -0.03751964       0.00867756      -0.00359374      -0.00377731
C        0.86245352       1.46968634      -0.09737152      -0.01014254      -0.01723831      -0.01402659      -0.00029393      -0.00400461      -0.00578381
H        1.90869365       1.57790570      -0.40468615      -0.00255762      -0.00725762      -0.00668911       0.00108734       0.00063594      -0.00350995
F       -0.79522864      -0.27380308      -0.05877350      -0.01935054      -0.05120953       0.03470906       0.00801508      -0.00701044       0.02389626
Br       3.66517410       0.06586450       1.72939865       0.03913283       0.05333915       0.02360315       0.02474549       0.05390689       0.04591255
H        1.01025891      -0.45329633       0.82499238       0.00448881       0.01672180      -0.04160036       0.02782026      -0.00009846      -0.01056182
C        1.17090364      -0.74927400      -1.29230217       0.00088863      -0.00755154       0.02111083      -0.00953553      -0.00524164      -0.00895433
H        0.62590225      -0.47474854      -2.19969165       0.02735666       0.01867011      -0.00574707       0.00883922       0.02627147      -0.01027100
H        2.22459620      -0.49893494      -1.40035842       0.00125620       0.01292024       0.03906550       0.00171266      -0.03670586       0.00352271
H        1.08910863      -1.82962281      -1.15442682      -0.06429492      -0.03069334      -0.04495784      -0.04861520      -0.00653538      -0.02473783
N        0.65916042       2.01329453       1.24940831       0.00962916      -0.06837492       0.03322930      -0.00740168      -0.01202752      -0.00391318
H        0.85905922       3.01182371       1.21358712       0.00788409       0.04130515      -0.01044572      -0.00863751      -0.01249833       0.00385352
H        1.40174821       1.60804370       1.82387157       0.00018009       0.00445397      -0.00523589      -0.01178529      -0.01585990      -0.00104331
C       -0.03864111       2.18898017      -1.08973955       0.00195288      -0.02003772      -0.00279109       0.00106725       0.00279877      -0.00215609
H        0.11691238       1.82115414      -2.10606380       0.03145031      -0.00269373       0.00290898      -0.01378816      -0.00172725      -0.00276075
H       -1.08452224       2.03636042      -0.81316923      -0.02450350       0.00895942       0.01510884       0.00004133       0.02187694       0.00801409
H        0.16785468       3.26431232      -1.08604783       0.02948572       0.01218743      -0.00072237       0.01805110      -0.00018687      -0.00772975
17
Properties=species:S:1:pos:R:3:mp2_forces:R:3:forces:R:3 R1=CH3 R2=H R3=NH2 R4=CH3 lg=F nu=Br rxn-id=1940 mp2_energy=-78512.0664919545 energy=-78512.04257681053 free_energy=-78512.06649041991 pbc="F F F"
C        0.58267755      -0.02223976      -0.08525289      -0.03285624       0.03649944      -0.03751964       0.00553847      -0.00557223      -0.00400848
C        0.86165896       1.47820800      -0.08921343      -0.01014254      -0.01723831      -0.01402659      -0.00691862      -0.00706914      -0.00840950
H        1.90817234       1.57893851      -0.39672629      -0.00255762      -0.00725762      -0.00668911      -0.00368510      -0.00758701      -0.00068006
F       -0.81043181      -0.26004471      -0.10674285      -0.01935054      -0.05120953       0.03470906       0.00569428      -0.01239506       0.04291805
Br       3.61846982      -0.03523452       1.62984110       0.03913283       0.05333915       0.02360315       0.05068533       0.06492630       0.04834492
H        0.95901189      -0.44581382       0.84569262       0.00448881       0.01672180      -0.04160036       0.04333310      -0.00034558      -0.01480546
C        1.19027951      -0.74490663      -1.27080268       0.00088863      -0.00755154       0.02111083      -0.01352410      -0.00532053      -0.00975499
H        0.59551237      -0.54973219      -2.16804736       0.02735666       0.01867011      -0.00574707       0.01464984       0.03673943      -0.02477382
H        2.21719703      -0.42218138      -1.42544627       0.00125620       0.01292024       0.03906550       0.00830196      -0.03915386       0.02653809
H        1.20048995      -1.82155657      -1.08951598      -0.06429492      -0.03069334      -0.04495784      -0.06209808      -0.01386885      -0.02726953
N        0.66624731       2.03151593       1.25462868       0.00962916      -0.06837492       0.03322930      -0.01521415      -0.01747631      -0.00620254
H        0.87579352       3.02875787       1.21082400       0.00788409       0.04130515      -0.01044572      -0.01233057      -0.01889415       0.00404572
H        1.40855164       1.62519856       1.82804643       0.00018009       0.00445397      -0.00523589      -0.02103433      -0.02538939      -0.00384993
C       -0.03823467       2.19094604      -1.08687605       0.00195288      -0.02003772      -0.00279109       0.00079101       0.00713877      -0.00632218
H        0.14699145       1.83629979      -2.10330283       0.03145031      -0.00269373       0.00290898      -0.01964257      -0.00042902      -0.00754449
H       -1.08447102       2.00763866      -0.83242542      -0.02450350       0.00895942       0.01510884      -0.00466481       0.04053911       0.00452774
H        0.13999577       3.27077853      -1.06684398       0.02948572       0.01218743      -0.00072237       0.03011833       0.00415754      -0.01275355
17
Properties=species:S:1:pos:R:3:mp2_forces:R:3:forces:R:3 R1=CH3 R2=H R3=NH2 R4=CH3 lg=F nu=Br rxn-id=1940 mp2_energy=-78512.0664919545 energy=-78511.92688824654 free_energy=-78512.06649041991 pbc="F F F"
C        0.57449760      -0.00132828      -0.07780072      -0.03285624       0.03649944      -0.03751964      -0.00232190      -0.01270339      -0.00228174
C        0.87984687       1.50175394      -0.06893925      -0.01014254      -0.01723831      -0.01402659      -0.04249479      -0.02239951      -0.01741283
H        1.92332016       1.60545465      -0.38651818      -0.00255762      -0.00725762      -0.00668911      -0.03655883      -0.07029100       0.00388724
F       -0.82497224      -0.22676686      -0.21310436      -0.01935054      -0.05120953       0.03470906       0.00207706      -0.01020736       0.10105451
Br       3.48898378      -0.23049637       1.48086638       0.03913283       0.05333915       0.02360315       0.16439965       0.05297712       0.13149224
H        0.85063331      -0.43301659       0.88114513       0.00448881       0.01672180      -0.04160036       0.12800539      -0.00153501      -0.02507159
C        1.22529813      -0.73351154      -1.24239290       0.00088863      -0.00755154       0.02111083      -0.03667149      -0.00607199      -0.02116878
H        0.54236880      -0.67741437      -2.09387599       0.02735666       0.01867011      -0.00574707       0.02269423       0.01458797      -0.07341539
H        2.18796941      -0.30834374      -1.51805042       0.00125620       0.01292024       0.03906550      -0.00926852      -0.01285778       0.06827496
H        1.38815413      -1.78369837      -0.99205626      -0.06429492      -0.03069334      -0.04495784      -0.06552614      -0.01183980      -0.02454901
N        0.69427252       2.07701414       1.26863726       0.00962916      -0.06837492       0.03322930      -0.03902517      -0.03386516      -0.01493755
H        0.90286572       3.07646223       1.20484661       0.00788409       0.04130515      -0.01044572      -0.02253668      -0.03643521      -0.00304474
H        1.43973955       1.68379170       1.84588039       0.00018009       0.00445397      -0.00523589      -0.03662153      -0.05239770      -0.02676690
C       -0.03561836       2.17924128      -1.07301240       0.00195288      -0.02003772      -0.00279109      -0.00970092       0.03131563      -0.02124505
H        0.20723079       1.84409889      -2.08489118       0.03145031      -0.00269373       0.00290898      -0.03730244       0.02308618      -0.02425069
H       -1.06788019       1.90627110      -0.84852809      -0.02450350       0.00895942       0.01510884      -0.03867644       0.11765358      -0.02645487
H        0.06120161       3.26706051      -1.03436919       0.02948572       0.01218743      -0.00072237       0.05952852       0.03098343      -0.02410982
17
Properties=species:S:1:pos:R:3:mp2_forces:R:3:forces:R:3 R1=CH3 R2=H R3=NH2 R4=CH3 lg=F nu=Br rxn-id=1940 mp2_energy=-78512.0664919545 energy=-78511.71217902948 free_energy=-78512.06649041991 pbc="F F F"
C        0.57711747       0.01249346      -0.07501718      -0.03285624       0.03649944      -0.03751964      -0.08920385      -0.03088440      -0.01255578
C        0.92491145       1.52486214      -0.05096308      -0.01014254      -0.01723831      -0.01402659      -0.16065342      -0.05385466      -0.02269306
H        1.96358420       1.67746882      -0.38713851      -0.00255762      -0.00725762      -0.00668911      -0.12144392      -0.26226152       0.03316895
F       -0.82563146      -0.21680234      -0.31540042      -0.01935054      -0.05120953       0.03470906       0.05101872       0.07311647       0.12800810
Br       3.32418745      -0.28370801       1.33905189       0.03913283       0.05333915       0.02360315       0.40894920      -0.00617932       0.25023366
H        0.72139412      -0.43050473       0.90556225       0.00448881       0.01672180      -0.04160036       0.32464933       0.00193866       0.00652096
C        1.26265178      -0.72799316      -1.22191549       0.00088863      -0.00755154       0.02111083      -0.11823541      -0.00752010      -0.03304102
H        0.52012660      -0.68749346      -2.02109834       0.02735666       0.01867011      -0.00574707       0.08714857      -0.08829993      -0.24359581
H        2.20060861      -0.30164097      -1.58419881       0.00125620       0.01292024       0.03906550      -0.06155763       0.06123520       0.18917207
H        1.44824587      -1.77300600      -0.96819896      -0.06429492      -0.03069334      -0.04495784      -0.05865433       0.01056146       0.01415206
N        0.73112521       2.11212665       1.28325762       0.00962916      -0.06837492       0.03322930      -0.08036805      -0.05164749      -0.01421219
H        0.91999956       3.11488295       1.20654582       0.00788409       0.04130515      -0.01044572      -0.01202380      -0.05467391      -0.01686781
H        1.47272393       1.74016673       1.87566087       0.00018009       0.00445397      -0.00523589      -0.03700607      -0.08057944      -0.07141177
C       -0.02388150       2.14694409      -1.05067380       0.00195288      -0.02003772      -0.00279109      -0.03765492       0.09608100      -0.04199702
H        0.24463152       1.81805818      -2.05910708       0.03145031      -0.00269373       0.00290898      -0.03812194       0.06002260      -0.03465011
H       -1.02573133       1.78556620      -0.81847662      -0.02450350       0.00895942       0.01510884      -0.11461092       0.23960830      -0.07707394
H        0.00184812       3.23515178      -1.01005335       0.02948572       0.01218743      -0.00072237       0.05776841       0.09333708      -0.05315729
17
Properties=species:S:1:pos:R:3:mp2_forces:R:3:forces:R:3 R1=CH3 R2=H R3=NH2 R4=CH3 lg=F nu=Br rxn-id=1940 mp2_energy=-78512.0664919545 energy=-78511.37405757967 free_energy=-78512.06649041991 pbc="F F F"
C        0.60668078       0.02057624      -0.07320883      -0.03285624       0.03649944      -0.03751964      -1.20868776      -0.14722394      -0.19527375
C        0.97492486       1.54177732      -0.04352523      -0.01014254      -0.01723831      -0.01402659      -0.34673470      -0.08915464      -0.05593794
H        2.00241628       1.75938389      -0.39719479      -0.00255762      -0.00725762      -0.00668911      -0.18026272      -0.40916755       0.04567755
F       -0.84181014      -0.23895845      -0.35498523      -0.01935054      -0.05120953       0.03470906       0.91906318       0.31557925       0.20187221
Br       3.19676163      -0.28266122       1.26221766       0.03913283       0.05333915       0.02360315       0.71171574      -0.07119894       0.40810246
H        0.62035452      -0.43086396       0.90389781       0.00448881       0.01672180      -0.04160036       0.60088034      -0.00609969       0.15367511
C        1.29792715      -0.72451539      -1.21055651       0.00088863      -0.00755154       0.02111083      -0.26374330      -0.01838178      -0.02107707
H        0.49163227      -0.66169930      -1.94403346       0.02735666       0.01867011      -0.00574707       0.18935553      -0.20178451      -0.49376527
H        2.21818477      -0.31975411      -1.64593069       0.00125620       0.01292024       0.03906550      -0.10916335       0.12135617       0.26133059
H        1.46825940      -1.77544089      -0.97210315      -0.06429492      -0.03069334      -0.04495784      -0.04435913       0.02249581       0.04417882
N        0.75586927       2.12818682       1.28757875       0.00962916      -0.06837492       0.03322930      -0.09832869      -0.06873908      -0.00637243
H        0.92298816       3.13188879       1.21190680       0.00788409       0.04130515      -0.01044572       0.01174676      -0.05547334      -0.02237141
H        1.48363744       1.76534686       1.89816061       0.00018009       0.00445397      -0.00523589      -0.02074722      -0.07696339      -0.08104783
C       -0.01171968       2.11731606      -1.03799652       0.00195288      -0.02003772      -0.00279109      -0.03221549       0.17425819      -0.05985192
H        0.25711760       1.79953071      -2.04861662       0.03145031      -0.00269373       0.00290898      -0.00534007       0.06422813      -0.02763762
H       -0.98936249       1.71039769      -0.79439492      -0.02450350       0.00895942       0.01510884      -0.14488292       0.32724854      -0.07943035
H       -0.01595022       3.20606126      -0.99337887       0.02948572       0.01218743      -0.00072237       0.02170382       0.11902076      -0.07207115
17
Properties=species:S:1:pos:R:3:mp2_forces:R:3:forces:R:3 R1=CH3 R2=H R3=NH2 R4=CH3 lg=F nu=Br rxn-id=1940 mp2_energy=-78512.0664919545 energy=-78510.59607162245 free_energy=-78512.06649041991 pbc="F F F"
C        0.70702442       0.03562126      -0.05529958      -0.03285624       0.03649944      -0.03751964      -3.13225790      -0.29617215      -0.75198796
C        1.00370988       1.54889880      -0.03933583      -0.01014254      -0.01723831      -0.01402659      -0.28544345      -0.13440776      -0.05254925
H        2.01691205       1.79274114      -0.40075860      -0.00255762      -0.00725762      -0.00668911      -0.11314633      -0.35204178       0.04247010
F       -0.91883887      -0.26535212      -0.37172468      -0.01935054      -0.05120953       0.03470906       1.87045236       0.47637307       0.34940997
Br       3.13892748      -0.27663088       1.22942369       0.03913283       0.05333915       0.02360315       0.82947869      -0.09037758       0.46556784
H        0.57125250      -0.43077245       0.89122444       0.00448881       0.01672180      -0.04160036       0.90625941      -0.00802394       0.31806428
C        1.32064852      -0.72454894      -1.21049075       0.00088863      -0.00755154       0.02111083      -0.12642449       0.02162036       0.04639778