13
Properties=species:S:1:pos:R:3:mp2_forces:R:3:forces:R:3 R1=NO2 R2=NH2 R3=H R4=H lg=Br nu=Br rxn-id=1096 mp2_energy=-149234.0647491544 energy=-149234.064750214 free_energy=-149234.064750214 pbc="F F F"
C        0.48113712      -0.02762635       0.03267193       0.00934339       0.00217030      -0.00335137       0.00935384       0.00219202      -0.00338943
C        1.09867844       1.34214114       0.05001928      -0.00379929       0.01043830      -0.01145243      -0.00380759       0.01043991      -0.01146110
H        2.18398249       1.20605581       0.01678952      -0.00095949       0.02419882      -0.00458408      -0.00096021       0.02419579      -0.00458214
Br      -1.52078716       0.13492187      -0.11408646       0.01007932      -0.02983342       0.05220361       0.01009854      -0.02983945       0.05220900
Br       4.17621192      -0.49435848       0.65660421       0.01392217      -0.00696650       0.08787289       0.01392434      -0.00696620       0.08787168
H        0.82523590       1.81975637       0.99140616      -0.01174887       0.01914493      -0.01716288      -0.01174799       0.01914287      -0.01716250
H        0.76242137       1.94267614      -0.79027738      -0.00745697       0.00022409      -0.01863407      -0.00745152       0.00021712      -0.01862651
N        0.80473139      -0.74357339      -1.31662008      -0.00778521       0.00154608      -0.01220865      -0.00774354       0.00166525      -0.01225645
O        0.98888218      -0.04714011      -2.30617029      -0.01120482       0.01419639      -0.01661060      -0.01122810       0.01416867      -0.01658173
O        0.81918594      -1.96886755      -1.28908510      -0.00998352       0.01113803      -0.01963640      -0.01001123       0.01106191      -0.01961776
N        0.82645258      -0.79522370       1.13750828       0.03222415       0.00039242      -0.01368335       0.03218541       0.00037701      -0.01364742
H        1.83338751      -0.66877395       1.30772653       0.03641873      -0.06503443      -0.06575685       0.03643187      -0.06503992      -0.06576219
H        0.65352387      -1.77643583       0.95089084      -0.04904946       0.01838498       0.04300420      -0.04904380       0.01838501       0.04300655
13
Properties=species:S:1:pos:R:3:mp2_forces:R:3:forces:R:3 R1=NO2 R2=NH2 R3=H R4=H lg=Br nu=Br rxn-id=1096 mp2_energy=-149234.0647491544 energy=-149234.0655461004 free_energy=-149234.064750214 pbc="F F F"
C        0.49583530      -0.05014435       0.01020570       0.00934339       0.00217030      -0.00335137      -0.00102319      -0.00006564      -0.00090730
C        1.14096649       1.31397497      -0.01221289      -0.00379929       0.01043830      -0.01145243      -0.00093765      -0.00021038      -0.00033263
H        2.21969687       1.16988598      -0.09305757      -0.00095949       0.02419882      -0.00458408      -0.00077567       0.00029251       0.00062875
Br      -1.52486506       0.18457395       0.04605859       0.01007932      -0.02983342       0.05220361      -0.00124503       0.00049115       0.00033011
Br       4.18100588      -0.38240141       1.22067383       0.01392217      -0.00696650       0.08787289       0.01530789       0.00178546       0.00882559
H        0.93551083       1.79141749       0.94678483      -0.01174887       0.01914493      -0.01716288      -0.00245941       0.00003933      -0.00089980
H        0.76144531       1.92429172      -0.83015045      -0.00745697       0.00022409      -0.01863407      -0.00025716      -0.00065201      -0.00110364
N        0.68116771      -0.73009585      -1.39205470      -0.00778521       0.00154608      -0.01220865      -0.00192029       0.00031274      -0.00077257
O        0.67999159      -0.00808516      -2.38034312      -0.01120482       0.01419639      -0.01661060       0.00014267       0.00042844      -0.00083954
O        0.81461692      -1.94819153      -1.39385193      -0.00998352       0.01113803      -0.01963640      -0.00588046       0.00012352      -0.00082384
N        0.91770170      -0.83067042       1.05437185       0.03222415       0.00039242      -0.01368335       0.00016986      -0.00041844      -0.00145380
H        1.93098037      -0.69916879       1.22773370       0.03641873      -0.06503443      -0.06575685       0.00074379      -0.00232497      -0.00311527
H        0.69898967      -1.81183462       0.92321960      -0.04904946       0.01838498       0.04300420      -0.00186533       0.00019830       0.00046393
13
Properties=species:S:1:pos:R:3:mp2_forces:R:3:forces:R:3 R1=NO2 R2=NH2 R3=H R4=H lg=Br nu=Br rxn-id=1096 mp2_energy=-149234.0647491544 energy=-149234.06591767672 free_energy=-149234.064750214 pbc="F F F"
C        0.49632913      -0.05147317       0.00849865       0.00934339       0.00217030      -0.00335137       0.00011322      -0.00013557      -0.00019346
C        1.14177882       1.31237671      -0.01340017      -0.00379929       0.01043830      -0.01145243       0.00026588      -0.00025589      -0.00020115
H        2.22069662       1.16855801      -0.09227076      -0.00095949       0.02419882      -0.00458408       0.00021179      -0.00027922      -0.00078285
Br      -1.52498152       0.18478146       0.05177165       0.01007932      -0.02983342       0.05220361       0.00009581       0.00021126       0.00084594
Br       4.19162872      -0.36815811       1.24334799       0.01392217      -0.00696650       0.08787289       0.00003581       0.00216109       0.00257221
H        0.93469544       1.79014544       0.94504630      -0.01174887       0.01914493      -0.01716288       0.00086335      -0.00047563       0.00003060
H        0.76384043       1.92234638      -0.83234931      -0.00745697       0.00022409      -0.01863407      -0.00008354      -0.00000741       0.00013830
N        0.67417545      -0.73020043      -1.39472395      -0.00778521       0.00154608      -0.01220865      -0.00070403      -0.00023594      -0.00021018
O        0.68595092      -0.00640191      -2.38173301      -0.01120482       0.01419639      -0.01661060       0.00064491       0.00016265      -0.00020444
O        0.78686039      -1.95028808      -1.39840856      -0.00998352       0.01113803      -0.01963640      -0.00272174      -0.00016361      -0.00051117
N        0.92243418      -0.83352678       1.04942265       0.03222415       0.00039242      -0.01368335       0.00041552      -0.00045013      -0.00054636
H        1.93568055      -0.70011239       1.22327159       0.03641873      -0.06503443      -0.06575685       0.00031897      -0.00008081      -0.00018085
H        0.70395441      -1.81449515       0.91890437      -0.04904946       0.01838498       0.04300420       0.00054404      -0.00045078      -0.00075658
13
Properties=species:S:1:pos:R:3:mp2_forces:R:3:forces:R:3 R1=NO2 R2=NH2 R3=H R4=H lg=Br nu=Br rxn-id=1096 mp2_energy=-149234.0647491544 energy=-149234.0661399261 free_energy=-149234.064750214 pbc="F F F"
C        0.49826410      -0.05655683       0.00237294       0.00934339       0.00217030      -0.00335137      -0.00053379       0.00025060      -0.00022866
C        1.15103416       1.30407503      -0.02201905      -0.00379929       0.01043830      -0.01145243      -0.00062797       0.00028546       0.00009339
H        2.22789747       1.15637204      -0.11920084      -0.00095949       0.02419882      -0.00458408      -0.00034817       0.00030952       0.00146786
Br      -1.52407407       0.19430646       0.07596761       0.01007932      -0.02983342       0.05220361      -0.00050951      -0.00082244      -0.00025208
Br       4.19882671      -0.31643256       1.33874079       0.01392217      -0.00696650       0.08787289       0.00538433      -0.00137747       0.00058597
H        0.96381530       1.77658721       0.94322032      -0.01174887       0.01914493      -0.01716288      -0.00218785       0.00084149      -0.00032386
H        0.76298065       1.92155336      -0.83068046      -0.00745697       0.00022409      -0.01863407       0.00032533       0.00001384      -0.00066557
N        0.64903345      -0.73076352      -1.40488611      -0.00778521       0.00154608      -0.01220865      -0.00019987       0.00000419      -0.00020224
O        0.66772269      -0.00220349      -2.38841400      -0.01120482       0.01419639      -0.01661060       0.00049391      -0.00001808      -0.00038990
O        0.73577028      -1.95291105      -1.41532132      -0.00998352       0.01113803      -0.01963640      -0.00054897       0.00010318      -0.00000129
N        0.93421666      -0.84513108       1.03210957       0.03222415       0.00039242      -0.01368335      -0.00013489       0.00038945       0.00000662
H        1.94343753      -0.69799355       1.22037438       0.03641873      -0.06503443      -0.06575685       0.00027220      -0.00038035      -0.00091481
H        0.72411862      -1.82735005       0.89511362      -0.04904946       0.01838498       0.04300420      -0.00138476       0.00040062       0.00082459
13
Properties=species:S:1:pos:R:3:mp2_forces:R:3:forces:R:3 R1=NO2 R2=NH2 R3=H R4=H lg=Br nu=Br rxn-id=1096 mp2_energy=-149234.0647491544 energy=-149234.0567176124 free_energy=-149234.064750214 pbc="F F F"
C        0.51356394      -0.07885182      -0.02020331       0.00934339       0.00217030      -0.00335137      -0.00115037       0.00329834       0.00359580
C        1.20284480       1.26523561      -0.06348417      -0.00379929       0.01043830      -0.01145243       0.00014299       0.00201866       0.00362128
H        2.26241819       1.09503286      -0.25675596      -0.00095949       0.02419882      -0.00458408       0.00147942       0.00015991       0.00877761
Br      -1.50693861       0.25884398       0.19954002       0.01007932      -0.02983342       0.05220361       0.00116008      -0.01821279      -0.02753013
Br       4.10678724      -0.10971753       1.71673372       0.01392217      -0.00696650       0.08787289       0.01199157      -0.00562437      -0.01692199
H        1.12217126       1.71092916       0.92922717      -0.01174887       0.01914493      -0.01716288      -0.00335062       0.00372888       0.00301048
H        0.76495193       1.91665304      -0.81870407      -0.00745697       0.00022409      -0.01863407       0.00418631       0.00198428       0.00050069
N        0.55629492      -0.73032840      -1.44050292      -0.00778521       0.00154608      -0.01220865      -0.00179725       0.00241414       0.00407523
O        0.51018152       0.01539177      -2.41110865      -0.01120482       0.01419639      -0.01661060      -0.00192164       0.00126701       0.00321719
O        0.64469206      -1.95242963      -1.47922411      -0.00998352       0.01113803      -0.01963640      -0.00274729       0.00223315       0.00457201
N        0.97839439      -0.89570155       0.96186554       0.03222415       0.00039242      -0.01368335      -0.00330366       0.00338433       0.00761040
H        1.96056748      -0.69050827       1.22373144       0.03641873      -0.06503443      -0.06575685       0.00147693      -0.00057496      -0.00140598
H        0.81711442      -1.88099726       0.78626274      -0.04904946       0.01838498       0.04300420      -0.00616647       0.00392340       0.00687740
13
Properties=species:S:1:pos:R:3:mp2_forces:R:3:forces:R:3 R1=NO2 R2=NH2 R3=H R4=H lg=Br nu=Br rxn-id=1096 mp2_energy=-149234.0647491544 energy=-149233.90327992255 free_energy=-149234.064750214 pbc="F F F"
C        0.54622981      -0.15628726      -0.10224436       0.00934339       0.00217030      -0.00335137      -0.00152297       0.01167918       0.01005445
C        1.22692078       1.20545584      -0.15675036      -0.00379929       0.01043830      -0.01145243       0.00938277       0.00670567       0.00386157
H        2.25136239       1.06081276      -0.48938999      -0.00095949       0.02419882      -0.00458408       0.00735313      -0.00228572      -0.00181726
Br      -1.51548216       0.64636679       0.80979604       0.01007932      -0.02983342       0.05220361       0.00425618      -0.07142213      -0.06489085
Br       3.82577197       0.11169099       2.24593238       0.01392217      -0.00696650       0.08787289       0.00847176      -0.00392995      -0.00991857
H        1.25675941       1.61082003       0.85449378      -0.01174887       0.01914493      -0.01716288       0.02103682       0.00931500       0.00390075
H        0.69262564       1.86864715      -0.83122544      -0.00745697       0.00022409      -0.01863407       0.01194211       0.01035516       0.00591248
N        0.54301506      -0.77394487      -1.53832564      -0.00778521       0.00154608      -0.01220865      -0.01380076       0.00689360       0.01006383
O        0.46712526       0.00451781      -2.48105174      -0.01120482       0.01419639      -0.01661060      -0.01607127       0.00549323       0.00848137
O        0.64372142      -1.99412589      -1.60351461      -0.00998352       0.01113803      -0.01963640      -0.02089024       0.00693363       0.01191388
N        1.06963449      -0.99060080       0.77408366       0.03222415       0.00039242      -0.01368335      -0.00223201       0.00901293       0.01067624
H        1.94236046      -0.68306719       1.24977128       0.03641873      -0.06503443      -0.06575685       0.00385779       0.00154849       0.00070400
H        0.98299902      -1.98673338       0.59580243      -0.04904946       0.01838498       0.04300420      -0.01178331       0.00970091       0.01105811
13
Properties=species:S:1:pos:R:3:mp2_forces:R:3:forces:R:3 R1=NO2 R2=NH2 R3=H R4=H lg=Br nu=Br rxn-id=1096 mp2_energy=-149234.0647491544 energy=-149233.99088383585 free_energy=-149234.064750214 pbc="F F F"
C        0.57771144      -0.32968860      -0.25859478       0.00934339       0.00217030      -0.00335137       0.00126233      -0.00767302      -0.00682630
C        1.05023388       1.11297336      -0.16673352      -0.00379929       0.01043830      -0.01145243      -0.00629207      -0.00447206      -0.00020022
H        2.12050510       1.12824354      -0.34188417      -0.00095949       0.02419882      -0.00458408      -0.00481866       0.00126301       0.00250623
Br      -1.58279052       1.73601353       1.62998442       0.01007932      -0.02983342       0.05220361      -0.00608343       0.04842064       0.03362190
Br       3.77148663       0.09937843       2.11714454       0.01392217      -0.00696650       0.08787289      -0.00398701       0.00286115      -0.00031747
H        0.82936949       1.45866568       0.83987079      -0.01174887       0.01914493      -0.01716288      -0.01269662      -0.00849512       0.00109921
H        0.51506046       1.72456835      -0.88971650      -0.00745697       0.00022409      -0.01863407      -0.00799517      -0.00465472       0.00067596
N        0.80969040      -0.88813466      -1.66239733      -0.00778521       0.00154608      -0.01220865       0.00972630      -0.00519582      -0.00547859
O        0.78016828      -0.09119901      -2.59559923      -0.01120482       0.01419639      -0.01661060       0.01019306      -0.00456816      -0.00520475
O        0.99284008      -2.09905395      -1.74657593      -0.00998352       0.01113803      -0.01963640       0.01401796      -0.00470970      -0.00622484
N        1.07142805      -1.10055477       0.68622555       0.03222415       0.00039242      -0.01368335       0.00106519      -0.00533385      -0.00491500
H        1.89518946      -0.72591593       1.20389804       0.03641873      -0.06503443      -0.06575685      -0.00122423      -0.00207978      -0.00293564
H        1.10215081      -2.10174400       0.51175555      -0.04904946       0.01838498       0.04300420       0.00683234      -0.00536257      -0.00580049
13
Properties=species:S:1:pos:R:3:mp2_forces:R:3:forces:R:3 R1=NO2 R2=NH2 R3=H R4=H lg=Br nu=Br rxn-id=1096 mp2_energy=-149234.0647491544 energy=-149234.09239508893 free_energy=-149234.064750214 pbc="F F F"
C        0.50698295      -0.42329857      -0.52167343       0.00934339       0.00217030      -0.00335137      -0.00060209      -0.00067735      -0.00527953
C        0.85126992       1.04766890      -0.38369330      -0.00379929       0.01043830      -0.01145243      -0.00942083      -0.00010181      -0.00431456
H        1.93573004       1.13369716      -0.36971118      -0.00095949       0.02419882      -0.00458408      -0.01346031       0.00602382      -0.00002268
Br      -0.15182153       1.92179772       2.96174880       0.01007932      -0.02983342       0.05220361       0.02819856       0.02173780       0.02030072
Br       3.00214977       0.53094677       2.51301997       0.01392217      -0.00696650       0.08787289       0.00341248      -0.00347872       0.02190035
H        0.49786460       1.37989494       0.59747250      -0.01174887       0.01914493      -0.01716288      -0.01493448      -0.00195589      -0.00792563
H        0.42739639       1.62209715      -1.20146302      -0.00745697       0.00022409      -0.01863407      -0.00910555      -0.00818449      -0.00656974
N        1.04587306      -0.98931385      -1.82784437      -0.00778521       0.00154608      -0.01220865       0.00829799      -0.00177215      -0.00456692
O        1.08212766      -0.22908610      -2.79099808      -0.01120482       0.01419639      -0.01661060       0.01021922       0.00163534      -0.00348908
O        1.39030176      -2.16834390      -1.81739380      -0.00998352       0.01113803      -0.01963640       0.01072868      -0.00009885      -0.00687591
N        0.84644769      -1.14012673       0.52978863       0.03222415       0.00039242      -0.01368335      -0.00338062      -0.00410771      -0.00315066
H        1.42359595      -0.64282011       1.24980485       0.03641873      -0.06503443      -0.06575685      -0.00567863      -0.00320685       0.00156650
H        1.07512529      -2.11956140       0.38831986      -0.04904946       0.01838498       0.04300420      -0.00427442      -0.00581312      -0.00157285
13
Properties=species:S:1:pos:R:3:mp2_forces:R:3:forces:R:3 R1=NO2 R2=NH2 R3=H R4=H lg=Br nu=Br rxn-id=1096 mp2_energy=-149234.0647491544 energy=-149233.982012856 free_energy=-149234.064750214 pbc="F F F"
C        0.60889268      -0.43243520      -0.49941672       0.00934339       0.00217030      -0.00335137      -0.00494702      -0.00280333      -0.00434970
C        0.88499390       1.06348904      -0.39890997      -0.00379929       0.01043830      -0.01145243      -0.01275388      -0.00118444       0.00076687
H        1.53267525       1.23222043       0.46020220      -0.00095949       0.02419882      -0.00458408      -0.01486358      -0.00035992       0.01176318
Br       0.14421761       1.87305185       3.19359466       0.01007932      -0.02983342       0.05220361       0.01683372       0.02054455      -0.00177996
Br       2.76287763       0.65278856       2.69899601       0.01392217      -0.00696650       0.08787289       0.03412390      -0.02458126      -0.00015514
H       -0.05042683       1.58672186      -0.18915306      -0.01174887       0.01914493      -0.01716288      -0.02518826      -0.00567233      -0.00321753
H        1.31241210       1.41492107      -1.32544618      -0.00745697       0.00022409      -0.01863407      -0.00664220       0.00367210      -0.00221353
N        0.85046410      -1.02025224      -1.86349424      -0.00778521       0.00154608      -0.01220865       0.01338045       0.00124047      -0.00417346
O        0.66236831      -0.28341680      -2.82931713      -0.01120482       0.01419639      -0.01661060       0.01496533      -0.00098319      -0.00658426
O        1.19117065      -2.20026791      -1.90283844      -0.00998352       0.01113803      -0.01963640       0.02401903       0.00421817      -0.00089509
N        1.08147402      -1.17343515       0.46772995       0.03222415       0.00039242      -0.01368335      -0.01413917       0.00197495       0.00087855
H        1.58394482      -0.66657102       1.23669722       0.03641873      -0.06503443      -0.06575685      -0.01568685       0.00250307       0.00178981
H        1.36797931      -2.12326250       0.27873315      -0.04904946       0.01838498       0.04300420      -0.00910148       0.00143115       0.00817027
13
Properties=species:S:1:pos:R:3:mp2_forces:R:3:forces:R:3 R1=NO2 R2=NH2 R3=H R4=H lg=Br nu=Br rxn-id=1096 mp2_energy=-149234.0647491544 energy=-149234.073168196 free_energy=-149234.064750214 pbc="F F F"
C        1.46013949      -0.35068744      -0.69915695       0.00934339       0.00217030      -0.00335137       0.08663120       0.00622355      -0.01948928
C        1.14672343       1.11816048      -0.51816055      -0.00379929       0.01043830      -0.01145243       0.02023184       0.00098444      -0.00904179
H        1.73538740       1.46412987       0.33555111      -0.00095949       0.02419882      -0.00458408       0.01160980       0.02133372      -0.00870388
Br      -0.14877492       1.21076871       2.82880122       0.01007932      -0.02983342       0.05220361      -0.01477420      -0.04174685      -0.02224838
Br       2.67298984       0.73847923       3.05729312       0.01392217      -0.00696650       0.08787289       0.01050007       0.01553160       0.03532214
H        0.10506301       1.21504603      -0.22360522      -0.01174887       0.01914493      -0.01716288       0.00830933      -0.04981998      -0.00187042
H        1.34522588       1.66574099      -1.43220501      -0.00745697       0.00022409      -0.01863407      -0.00589265       0.02291901      -0.00664581
N        0.66887920      -1.01785188      -1.77754568      -0.00778521       0.00154608      -0.01220865      -0.00779925       0.00079479       0.00103477
O        0.22694239      -0.30132906      -2.67384623      -0.01120482       0.01419639      -0.01661060      -0.03057709       0.00266709       0.00965313
O        0.55769207      -2.24031202      -1.70012143      -0.00998352       0.01113803      -0.01963640      -0.04976675      -0.00381963       0.00544421
N        1.50542761      -1.04499228       0.41482930       0.03222415       0.00039242      -0.01368335       0.03191582       0.00823441      -0.00283816
H        1.40028917      -0.50924626       1.30021459       0.03641873      -0.06503443      -0.06575685      -0.04106853       0.01220875       0.00775817
H        1.25705899      -2.02435441       0.41532918      -0.04904946       0.01838498       0.04300420      -0.01931958       0.00448909       0.01162530
13
Properties=species:S:1:pos:R:3:mp2_forces:R:3:forces:R:3 R1=NO2 R2=NH2 R3=H R4=H lg=Br nu=Br rxn-id=1096 mp2_energy=-149234.0647491544 energy=-149234.6515899277 free_energy=-149234.064750214 pbc="F F F"
C        1.49433180      -0.36070770      -0.75466219       0.00934339       0.00217030      -0.00335137       0.01676940      -0.02211093       0.01407471
C        1.14985703       1.10620222      -0.56901340      -0.00379929       0.01043830      -0.01145243       0.00834853      -0.00373966      -0.02074189
H        1.74756909       1.49258325       0.26119529      -0.00095949       0.02419882      -0.00458408      -0.00356499       0.00738663      -0.02689568
Br       0.53619401       1.08317681       2.85896636       0.01007932      -0.02983342       0.05220361       0.23311030      -0.07385196       0.00923453
Br       2.15862600       0.95469263       3.49877556       0.01392217      -0.00696650       0.08787289      -0.16245567       0.10638056       0.16263086
H        0.11916493       1.16536948      -0.22175913      -0.01174887       0.01914493      -0.01716288      -0.00148619      -0.01781299      -0.01369528
H        1.29002848       1.65444447      -1.49336320      -0.00745697       0.00022409      -0.01863407      -0.00560314      -0.00323828      -0.01457754
N        0.64643302      -1.02615951      -1.80905155      -0.00778521       0.00154608      -0.01220865      -0.01090186       0.01400794      -0.01644783
O        0.19372029      -0.30752182      -2.69697901      -0.01120482       0.01419639      -0.01661060      -0.01506354      -0.00190774      -0.00422741
O        0.49090141      -2.24021108      -1.70425106      -0.00998352       0.01113803      -0.01963640      -0.02839034      -0.00544427      -0.00106791
N        1.52599519      -1.04749368       0.37068514       0.03222415       0.00039242      -0.01368335      -0.00075087       0.01300509      -0.02598291
H        1.30967477      -0.51866590       1.22967949       0.03641873      -0.06503443      -0.06575685      -0.03756105      -0.01138741      -0.04056059
H        1.27054751      -2.03215720       0.35715515      -0.04904946       0.01838498       0.04300420       0.00754943      -0.00128698      -0.02174307
13
Properties=species:S:1:pos:R:3:mp2_forces:R:3:forces:R:3 R1=NO2 R2=NH2 R3=H R4=H lg=Br nu=Br rxn-id=1096 mp2_energy=-149234.0647491544 energy=-149234.09237541232 free_energy=-149234.064750214 pbc="F F F"
C        1.54076200      -0.39770123      -0.63228953       0.00934339       0.00217030      -0.00335137      -0.00010433      -0.00189435      -0.00315429
C        1.26372609       1.07403887      -0.39285479      -0.00379929       0.01043830      -0.01145243       0.00470195      -0.00117323      -0.00148229
H        1.89546536       1.39810873       0.43940957      -0.00095949       0.02419882      -0.00458408       0.00689286      -0.00465710      -0.00179751
Br      -0.55012581       0.19703943       2.77797868       0.01007932      -0.02983342       0.05220361       0.00294992       0.00181267       0.00315025
Br       3.05651921       1.90145505       2.51543812       0.01392217      -0.00696650       0.08787289      -0.01098986       0.01452464       0.01393830
H        0.23275128       1.16729555      -0.05761589      -0.01174887       0.01914493      -0.01716288       0.00644657       0.00151159       0.00090499
H        1.43640995       1.64831823      -1.29706248      -0.00745697       0.00022409      -0.01863407       0.00415959      -0.00024689      -0.00042528
N        0.65842181      -0.92163880      -1.76864485      -0.00778521       0.00154608      -0.01220865      -0.00461522      -0.00049398      -0.00108099
O        0.41459181      -0.14495647      -2.68677924      -0.01120482       0.01419639      -0.01661060      -0.00815972      -0.00018405       0.00078078
O        0.27421693      -2.08430460      -1.67841224      -0.00998352       0.01113803      -0.01963640      -0.00444019      -0.00192542      -0.00025680
N        1.46527324      -1.12575850       0.46516459       0.03222415       0.00039242      -0.01368335       0.00101216      -0.00240103      -0.00409639
H        0.99046686      -0.67242816       1.28089676       0.03641873      -0.06503443      -0.06575685       0.00167642      -0.00234604      -0.00234948
H        1.25456481      -2.11591612       0.36214876      -0.04904946       0.01838498       0.04300420       0.00046985      -0.00252682      -0.00413129
13
Properties=species:S:1:pos:R:3:mp2_forces:R:3:forces:R:3 R1=NO2 R2=NH2 R3=H R4=H lg=Br nu=Br rxn-id=1096 mp2_energy=-149234.0647491544 energy=-149233.99082847868 free_energy=-149234.064750214 pbc="F F F"
C        1.49019399      -0.43132262      -0.58825638       0.00934339       0.00217030      -0.00335137       0.00198988      -0.00143345      -0.00457818
C        1.31593781       1.06533657      -0.34698380      -0.00379929       0.01043830      -0.01145243       0.00446724      -0.00150536      -0.00297286
H        2.30012399       1.52917439      -0.26051742      -0.00095949       0.02419882      -0.00458408       0.00065863      -0.00865420       0.01846388
Br      -0.48721249       0.21212440       2.87151776       0.01007932      -0.02983342       0.05220361       0.00807421      -0.00147232       0.00024527
Br       2.79543100       2.06892950       2.56540708       0.01392217      -0.00696650       0.08787289      -0.01826106       0.00728199       0.00899986
H        0.82784811       1.19932390       0.61560303      -0.01174887       0.01914493      -0.01716288      -0.01049760      -0.00213451      -0.01590095
H        0.75882974       1.49979209      -1.16401624      -0.00745697       0.00022409      -0.01863407       0.02465450       0.00508203      -0.00808204
N        0.77184367      -0.92335818      -1.83602207      -0.00778521       0.00154608      -0.01220865      -0.00918655       0.00076828       0.00101943
O        0.70793548      -0.14978233      -2.78763694      -0.01120482       0.01419639      -0.01661060      -0.01373522      -0.00003282       0.00177776
O        0.33635398      -2.07091907      -1.80204616      -0.00998352       0.01113803      -0.01963640      -0.01316844       0.00176216       0.00500525
N        1.27922710      -1.18489755       0.46166854       0.03222415       0.00039242      -0.01368335       0.00800584      -0.00034803      -0.00247776
H        0.81854494      -0.73348584       1.28437948       0.03641873      -0.06503443      -0.06575685       0.01088520       0.00089243      -0.00129955
H        1.01798624      -2.15736331       0.31428056      -0.04904946       0.01838498       0.04300420       0.00611338      -0.00020621      -0.00020012
13
Properties=species:S:1:pos:R:3:mp2_forces:R:3:forces:R:3 R1=NO2 R2=NH2 R3=H R4=H lg=Br nu=Br rxn-id=1096 mp2_energy=-149234.0647491544 energy=-149234.08346747994 free_energy=-149234.064750214 pbc="F F F"
C        1.51936347      -0.50277018      -0.52065575       0.00934339       0.00217030      -0.00335137       0.00178380      -0.00895449       0.00605212
C        1.39557286       0.98643883      -0.24900172      -0.00379929       0.01043830      -0.01145243       0.00967927      -0.00687949       0.00604557
H        2.16709245       1.55010143      -0.77421221      -0.00095949       0.02419882      -0.00458408      -0.00450907       0.00049453      -0.04469767
Br      -0.63596265       0.16191368       2.77793729       0.01007932      -0.02983342       0.05220361      -0.00633034      -0.00435085      -0.00704223