15
Properties=species:S:1:pos:R:3:mp2_forces:R:3:forces:R:3 R1=CH3 R2=CN R3=H R4=NH2 lg=Br nu=Br rxn-id=2046 mp2_energy=-147250.308745421 energy=-147250.30874140467 free_energy=-147250.30874140467 pbc="F F F"
C        0.65412286      -0.06836710      -0.00033528      -0.00813343       0.02895041       0.00690487      -0.00807508       0.02894789       0.00690199
C        1.12778352       1.38787145      -0.03931101      -0.00127604       0.02284699       0.00053859      -0.00125897       0.02283437       0.00056910
H        2.22072449       1.33286484      -0.11723284       0.01095514      -0.08987385       0.03159640       0.01093294      -0.08986990       0.03159261
Br      -1.35214043      -0.05984565       0.08006215       0.00283324      -0.01371808      -0.00715577       0.00283446      -0.01370964      -0.00716631
Br       4.56979536       0.12071948      -0.27406456       0.01792396       0.07175213      -0.05203069       0.01792351       0.07175162      -0.05203005
H        0.87376927       1.87227924       0.91251488      -0.02984040      -0.04317181       0.04613973      -0.02984492      -0.04316889       0.04613333
C        1.09334146      -0.84930912      -1.22551828      -0.01235283       0.00651220       0.03531309      -0.01234550       0.00650316       0.03531273
H        0.71303896      -0.34450290      -2.11374764       0.02160128       0.00034386       0.03302560       0.02159683       0.00034097       0.03301683
H        2.18982502      -0.83417798      -1.23353891      -0.02697076      -0.02618947       0.00961924      -0.02699632      -0.02618841       0.00961707
H        0.72593654      -1.87659395      -1.19090687       0.01704944       0.00249977       0.02125076       0.01704827       0.00250629       0.02125030
C        1.06199809      -0.70274008       1.25280996      -0.04247566       0.02963638      -0.06728956      -0.04241615       0.02952595      -0.06708189
N        1.33336893      -1.20130927       2.28200119       0.00814158      -0.01638364      -0.00166729       0.00806399      -0.01627892      -0.00185649
N        0.59340238       2.06836640      -1.21046418      -0.00133736       0.01140512      -0.03533681      -0.00133104       0.01139255      -0.03534405
H        1.20753193       2.83288389      -1.45556500       0.04143867      -0.01521954      -0.02926639       0.04144165      -0.01520726      -0.02927155
H       -0.32252970       2.44580263      -1.00645474       0.00244327       0.03060953       0.00835822       0.00242632       0.03062020       0.00835639
15
Properties=species:S:1:pos:R:3:mp2_forces:R:3:forces:R:3 R1=CH3 R2=CN R3=H R4=NH2 lg=Br nu=Br rxn-id=2046 mp2_energy=-147250.308745421 energy=-147250.51431202778 free_energy=-147250.30874140467 pbc="F F F"
C        0.50557877      -0.13543293       0.06873773      -0.00813343       0.02895041       0.00690487      -0.00022102      -0.00031711       0.00005148
C        1.01172444       1.31087741       0.13279208      -0.00127604       0.02284699       0.00053859       0.00098886      -0.00075335       0.00361435
H        2.07081320       1.24177531       0.40942791       0.01095514      -0.08987385       0.03159640       0.00122401      -0.00221891       0.00289593
Br      -1.48061471      -0.15063460       0.01111774       0.00283324      -0.01371808      -0.00715577       0.00063642       0.00171755      -0.01361622
Br       4.29231798       1.34943758      -1.22339783       0.01792396       0.07175213      -0.05203069      -0.00940197       0.00166599      -0.04083491
H        0.46358524       1.83284285       0.92415659      -0.02984040      -0.04317181       0.04613973       0.00200004      -0.00293280       0.00580370
C        1.02845550      -0.87267628      -1.15395088      -0.01235283       0.00651220       0.03531309       0.00717358      -0.00082539       0.00380055
H        0.60118506      -0.41217385      -2.04330290       0.02160128       0.00034386       0.03302560       0.01314038      -0.00125168       0.00086687
H        2.11560289      -0.74863216      -1.18822693      -0.02697076      -0.02618947       0.00961924       0.00715138      -0.00095395       0.00986521
H        0.76381462      -1.93090703      -1.11413069       0.01704944       0.00249977       0.02125076       0.00682630      -0.00080584       0.00262021
C        0.86799922      -0.82219453       1.30555718      -0.04247566       0.02963638      -0.06728956      -0.00991975      -0.00074625       0.00217129
N        1.17933368      -1.36467494       2.30076421       0.00814158      -0.01638364      -0.00166729      -0.01921742      -0.00086875       0.00454699
N        0.84608127       1.96753754      -1.15435644      -0.00133736       0.01140512      -0.03533681      -0.00042372       0.00320699       0.00635651
H        1.75457464       1.90789369      -1.61251438       0.04143867      -0.01521954      -0.02926639      -0.00256430       0.00177531       0.00227530
H        0.66951687       2.95090383      -1.00242452       0.00244327       0.03060953       0.00835822       0.00260722       0.00330820       0.00958274
15
Properties=species:S:1:pos:R:3:mp2_forces:R:3:forces:R:3 R1=CH3 R2=CN R3=H R4=NH2 lg=Br nu=Br rxn-id=2046 mp2_energy=-147250.308745421 energy=-147250.52685154259 free_energy=-147250.30874140467 pbc="F F F"
C        0.50324240      -0.13819889       0.06952219      -0.00813343       0.02895041       0.00690487       0.00007103      -0.00002905       0.00004950
C        1.02109699       1.30393614       0.16202395      -0.00127604       0.02284699       0.00053859       0.00027006      -0.00009145      -0.00002544
H        2.08204252       1.22162205       0.43227099       0.01095514      -0.08987385       0.03159640       0.00036750      -0.00034759      -0.00036688
Br      -1.47659221      -0.13393033      -0.09905131       0.00283324      -0.01371808      -0.00715577       0.00020841      -0.00084737      -0.00109932
Br       4.21863350       1.37157756      -1.55691304       0.01792396       0.07175213      -0.05203069       0.00026596       0.00148034      -0.00018847
H        0.48210179       1.80917555       0.97126114      -0.02984040      -0.04317181       0.04613973       0.00067776      -0.00005341       0.00023224
C        1.08547432      -0.88018375      -1.12298299      -0.01235283       0.00651220       0.03531309      -0.00023797      -0.00027753       0.00006176
H        0.70475054      -0.42449377      -2.03611714       0.02160128       0.00034386       0.03302560      -0.00040741      -0.00021972       0.00012560
H        2.17245168      -0.75579448      -1.10969110      -0.02697076      -0.02618947       0.00961924      -0.00022767      -0.00067970      -0.00021367
H        0.81946151      -1.93856865      -1.09129099       0.01704944       0.00249977       0.02125076      -0.00074870      -0.00015323       0.00024259
C        0.78581128      -0.82901356       1.32395094      -0.04247566       0.02963638      -0.06728956      -0.00012990       0.00018475       0.00021852
N        1.02047525      -1.37372041       2.33865647       0.00814158      -0.01638364      -0.00166729      -0.00043104       0.00048742       0.00046653
N        0.84517408       1.99190341      -1.10342648      -0.00133736       0.01140512      -0.03533681       0.00009777       0.00013663       0.00013315
H        1.73859706       1.92448584      -1.59117697       0.04143867      -0.01521954      -0.02926639       0.00006405       0.00022276      -0.00001565
H        0.68724797       2.97514517      -0.92678679       0.00244327       0.03060953       0.00835822       0.00016013       0.00018714       0.00037955
15
Properties=species:S:1:pos:R:3:mp2_forces:R:3:forces:R:3 R1=CH3 R2=CN R3=H R4=NH2 lg=Br nu=Br rxn-id=2046 mp2_energy=-147250.308745421 energy=-147250.5225057139 free_energy=-147250.30874140467 pbc="F F F"
C        0.50009438      -0.13886933       0.07184138      -0.00813343       0.02895041       0.00690487       0.00593871       0.00552926       0.00560183
C        1.03504931       1.29700898       0.15252637      -0.00127604       0.02284699       0.00053859       0.00146562       0.00607384       0.00368931
H        2.09700914       1.20878572       0.41016155       0.01095514      -0.08987385       0.03159640       0.00278910       0.00444494       0.00107716
Br      -1.48559426      -0.07377190      -0.04997946       0.00283324      -0.01371808      -0.00715577       0.02399325      -0.05625230      -0.04857801
Br       4.23418594       1.44188361      -1.50793806       0.01792396       0.07175213      -0.05203069      -0.00261990      -0.01090496      -0.00354859
H        0.50741438       1.81305399       0.96202919      -0.02984040      -0.04317181       0.04613973       0.00521655       0.00679056       0.00640541
C        1.07401813      -0.88712435      -1.12127389      -0.01235283       0.00651220       0.03531309      -0.00880589       0.00380093       0.00290062
H        0.70011120      -0.43174021      -2.03546926       0.02160128       0.00034386       0.03302560      -0.01585841       0.00525500       0.00521555
H        2.16298416      -0.76636637      -1.10409960      -0.02697076      -0.02618947       0.00961924      -0.00781368      -0.00354202      -0.00624601
H        0.81042326      -1.94582435      -1.08821177       0.01704944       0.00249977       0.02125076      -0.01972569       0.00596896       0.00590845
C        0.78202083      -0.83873399       1.32087583      -0.04247566       0.02963638      -0.06728956       0.00487839       0.00627389       0.00660969
N        1.01623630      -1.40415419       2.32417134       0.00814158      -0.01638364      -0.00166729       0.00242824       0.00818692       0.00810446
N        0.85422083       1.96938640      -1.12165046      -0.00133736       0.01140512      -0.03533681      -0.00083948       0.00857047       0.00511534
H        1.75914132       1.93667319      -1.59064351       0.04143867      -0.01521954      -0.02926639      -0.00412923      -0.00201662      -0.00111700
H        0.64265376       2.94373467      -0.96209077       0.00244327       0.03060953       0.00835822       0.01308242       0.01182112       0.00886179
15
Properties=species:S:1:pos:R:3:mp2_forces:R:3:forces:R:3 R1=CH3 R2=CN R3=H R4=NH2 lg=Br nu=Br rxn-id=2046 mp2_energy=-147250.308745421 energy=-147250.3037767606 free_energy=-147250.30874140467 pbc="F F F"
C        0.46399154      -0.16971904       0.04183799      -0.00813343       0.02895041       0.00690487      -0.05696474       0.06376979       0.04549551
C        1.02810009       1.26164749       0.12955587      -0.00127604       0.02284699       0.00053859       0.01891554       0.03821117       0.01989778
H        2.08171088       1.18276521       0.40243825       0.01095514      -0.08987385       0.03159640       0.03188313      -0.00114216      -0.02096684
Br      -1.62584253       0.26847761       0.24965784       0.00283324      -0.01371808      -0.00715577       0.29555427      -0.36979526      -0.24326099
Br       4.25547618       1.51323184      -1.47137920       0.01792396       0.07175213      -0.05203069      -0.00481862      -0.01301328       0.00123472
H        0.47866754       1.77850983       0.92016717      -0.02984040      -0.04317181       0.04613973       0.08282821       0.08373659       0.04520215
C        1.12091308      -0.90677733      -1.13723667      -0.01235283       0.00651220       0.03531309      -0.09357840       0.03153614       0.02679564
H        0.78860911      -0.46030026      -2.06465782       0.02160128       0.00034386       0.03302560      -0.08818832       0.02271061       0.02548083
H        2.20474663      -0.74026115      -1.06583769      -0.02697076      -0.02618947       0.00961924      -0.08531561       0.01123520       0.01551006
H        0.92602068      -1.97927374      -1.12247729       0.01704944       0.00249977       0.02125076      -0.09806705       0.03114347       0.03720063
C        0.75437279      -0.87960900       1.28108575      -0.04247566       0.02963638      -0.06728956      -0.04213149       0.03531197       0.03010307
N        1.00689285      -1.46674687       2.26868655       0.00814158      -0.01638364      -0.00166729       0.00099358       0.00604809       0.00542014
N        0.86235591       1.91079492      -1.15829933      -0.00133736       0.01140512      -0.03533681       0.00214573       0.02662089       0.01521506
H        1.79069526       1.94767142      -1.58345061       0.04143867      -0.01521954      -0.02926639      -0.00415050      -0.00933407      -0.00709639
H        0.55325867       2.86353096      -1.02984196       0.00244327       0.03060953       0.00835822       0.04089428       0.04296084       0.00376864
15
Properties=species:S:1:pos:R:3:mp2_forces:R:3:forces:R:3 R1=CH3 R2=CN R3=H R4=NH2 lg=Br nu=Br rxn-id=2046 mp2_energy=-147250.308745421 energy=-147250.1687332376 free_energy=-147250.30874140467 pbc="F F F"
C        0.59773933      -0.32485746      -0.07069773      -0.00813343       0.02895041       0.00690487       0.00559826      -0.01439410      -0.00324541
C        0.97953366       1.16864877       0.08060874      -0.00127604       0.02284699       0.00053859      -0.00973107      -0.01223345      -0.00014217
H        2.00084899       1.18461165       0.45356818       0.01095514      -0.08987385       0.03159640      -0.01238236      -0.00201159       0.00532141
Br      -2.34662821       1.18171854       0.85519405       0.00283324      -0.01371808      -0.00715577       0.01194009       0.10766717       0.00347227
Br       4.26881341       1.54034412      -1.47419569       0.01792396       0.07175213      -0.05203069      -0.00961076       0.01453321       0.01099891
H        0.27487693       1.57641097       0.80917515      -0.02984040      -0.04317181       0.04613973      -0.01783804      -0.01928999      -0.00336836
C        1.35343221      -0.98381595      -1.20251139      -0.01235283       0.00651220       0.03531309       0.01295625      -0.00555294      -0.00307015
H        1.00805235      -0.51712455      -2.12695934       0.02160128       0.00034386       0.03302560       0.01030740      -0.00737443      -0.00271647
H        2.41499440      -0.76351712      -1.09938503      -0.02697076      -0.02618947       0.00961924       0.01028185       0.00368344      -0.00039397
H        1.17241636      -2.05547919      -1.21236773       0.01704944       0.00249977       0.02125076       0.02303655      -0.00657827      -0.00499568
C        0.85322969      -0.96684680       1.20448239      -0.04247566       0.02963638      -0.06728956       0.01126848      -0.01351796      -0.00445849
N        1.00675160      -1.48750556       2.24815770       0.00814158      -0.01638364      -0.00166729       0.01446224      -0.01386673      -0.00528873
N        0.85567421       1.84461512      -1.19631820      -0.00133736       0.01140512      -0.03533681      -0.01216603      -0.01187686       0.00070878
H        1.79974066       1.96923421      -1.56657087       0.04143867      -0.01521954      -0.02926639      -0.01384810      -0.00030536       0.00487965
H        0.45049310       2.75750513      -1.04193135       0.00244327       0.03060953       0.00835822      -0.02427475      -0.01888215       0.00229838
15
Properties=species:S:1:pos:R:3:mp2_forces:R:3:forces:R:3 R1=CH3 R2=CN R3=H R4=NH2 lg=Br nu=Br rxn-id=2046 mp2_energy=-147250.308745421 energy=-147250.45097094795 free_energy=-147250.30874140467 pbc="F F F"
C        0.69647817      -0.61374341      -0.07789649      -0.00813343       0.02895041       0.00690487       0.00137042      -0.00675277      -0.00326874
C        0.83039932       0.90953114       0.10947808      -0.00127604       0.02284699       0.00053859      -0.00786542      -0.00572937      -0.00205738
H        1.84351636       1.07711302       0.47048356       0.01095514      -0.08987385       0.03159640      -0.00949365       0.00003827       0.00178502
Br      -1.87530039       3.26178972       0.49858033       0.00283324      -0.01371808      -0.00715577       0.01754768       0.04783875       0.01399107
Br       3.99258641       1.95831021      -1.20169677       0.01792396       0.07175213      -0.05203069      -0.01294717       0.00953761       0.00139211
H        0.09391015       1.21579633       0.85697123      -0.02984040      -0.04317181       0.04613973      -0.01168023      -0.00908823      -0.00405140
C        1.53299610      -1.09779491      -1.24630227      -0.01235283       0.00651220       0.03531309       0.00986745      -0.00314227      -0.00070232
H        1.09315525      -0.66658191      -2.14614741       0.02160128       0.00034386       0.03302560       0.01106580      -0.00554338      -0.00310964
H        2.54125643      -0.69725892      -1.14837854      -0.02697076      -0.02618947       0.00961924       0.00839279       0.00149128       0.00409070
H        1.54276050      -2.18269824      -1.29242671       0.01704944       0.00249977       0.02125076       0.01532980      -0.00354714      -0.00106714
C        1.08710085      -1.24001259       1.16928419      -0.04247566       0.02963638      -0.06728956       0.00064899      -0.00412845      -0.00138789
N        1.33910268      -1.75158131       2.19824504       0.00814158      -0.01638364      -0.00166729       0.00029649      -0.00225834       0.00057849
N        0.58722727       1.60206636      -1.14135125      -0.00133736       0.01140512      -0.03533681      -0.01005310      -0.00713828      -0.00270918
H        1.46766820       2.00118606      -1.44156831       0.04143867      -0.01521954      -0.02926639      -0.00841227      -0.01076684      -0.00532266
H       -0.08288864       2.34782032      -0.94702580       0.00244327       0.03060953       0.00835822      -0.00406760      -0.00081085       0.00183893
15
Properties=species:S:1:pos:R:3:mp2_forces:R:3:forces:R:3 R1=CH3 R2=CN R3=H R4=NH2 lg=Br nu=Br rxn-id=2046 mp2_energy=-147250.308745421 energy=-147250.35937520952 free_energy=-147250.30874140467 pbc="F F F"
C        0.69517027      -0.53848765       0.00801589      -0.00813343       0.02895041       0.00690487      -0.00059744      -0.00856148      -0.00686780
C        0.96278758       0.97262345       0.19716328      -0.00127604       0.02284699       0.00053859      -0.01141891      -0.00550550      -0.00729944
H        2.00528834       1.05331870       0.49064500       0.01095514      -0.08987385       0.03159640      -0.01336625       0.00137667       0.00200089
Br      -2.20244920       2.76932878      -0.03971727       0.00283324      -0.01371808      -0.00715577       0.00541353       0.06362320       0.05093621
Br       4.14908625       1.84951492      -1.15482812       0.01792396       0.07175213      -0.05203069      -0.01015219       0.02097494       0.00352646
H        0.29341910       1.31443223       0.99379442      -0.02984040      -0.04317181       0.04613973      -0.02135040      -0.00604963      -0.01387282
C        1.34669370      -1.05245195      -1.25822177      -0.01235283       0.00651220       0.03531309       0.01483614      -0.00931641      -0.00068284
H        0.83542433      -0.56258671      -2.08713229       0.02160128       0.00034386       0.03302560       0.02175548      -0.01389490      -0.00836491
H        2.38596411      -0.72185311      -1.27428704      -0.02697076      -0.02618947       0.00961924       0.01497568      -0.00603226       0.00924006
H        1.27249565      -2.13235893      -1.32723836       0.01704944       0.00249977       0.02125076       0.01960544      -0.00996457       0.00101448
C        1.17362485      -1.22516181       1.19027983      -0.04247566       0.02963638      -0.06728956      -0.00303436      -0.00239316      -0.00119636
N        1.50133455      -1.79115028       2.16833667       0.00814158      -0.01638364      -0.00166729      -0.00346285       0.00230035       0.00154169
N        0.73493345       1.69061949      -1.03692898      -0.00133736       0.01140512      -0.03533681      -0.00908404      -0.01058339      -0.01144246
H        1.58384985       2.16359843      -1.29276847       0.04143867      -0.01521954      -0.02926639      -0.00367380      -0.01878225      -0.01449246
H       -0.04765415       2.33455633      -0.91686392       0.00244327       0.03060953       0.00835822      -0.00044602       0.00280840      -0.00404071
15
Properties=species:S:1:pos:R:3:mp2_forces:R:3:forces:R:3 R1=CH3 R2=CN R3=H R4=NH2 lg=Br nu=Br rxn-id=2046 mp2_energy=-147250.308745421 energy=-147250.20416580263 free_energy=-147250.30874140467 pbc="F F F"
C        0.69673395      -0.41321851       0.11637150      -0.00813343       0.02895041       0.00690487      -0.00503287      -0.00584335      -0.00077794
C        1.14378580       1.05109807       0.31377479      -0.00127604       0.02284699       0.00053859      -0.01066503      -0.00227005      -0.00125246
H        2.21658790       1.01766798       0.47357498       0.01095514      -0.08987385       0.03159640      -0.01142805      -0.00102961       0.01203787
Br      -2.29831524       1.81487615      -0.82470499       0.00283324      -0.01371808      -0.00715577       0.00163415       0.01915006       0.02176785
Br       4.30141186       1.62871696      -1.23871218       0.01792396       0.07175213      -0.05203069      -0.02084362       0.01921849       0.01274894
H        0.62252320       1.40897158       1.20771721      -0.02984040      -0.04317181       0.04613973      -0.02459476      -0.00018739      -0.00754832
C        1.11040512      -0.92115203      -1.24592406      -0.01235283       0.00651220       0.03531309       0.00098444      -0.00409909       0.00023886
H        0.48858398      -0.36921919      -1.96029717       0.02160128       0.00034386       0.03302560       0.00742951       0.00127356      -0.00261573
H        2.14825828      -0.63446008      -1.41993424      -0.02697076      -0.02618947       0.00961924       0.00354421      -0.00730347       0.00714056
H        0.97053271      -1.99157571      -1.33553677       0.01704944       0.00249977       0.02125076      -0.00278868      -0.00367643      -0.00282420
C        1.20780883      -1.20076899       1.21423060      -0.04247566       0.02963638      -0.06728956       0.00607197      -0.00224920      -0.00129418
N        1.53620339      -1.84155790       2.14501774       0.00814158      -0.01638364      -0.00166729       0.01986577       0.00000101      -0.00304872
N        0.89336307       1.84536930      -0.86008485      -0.00133736       0.01140512      -0.03533681       0.00200194      -0.00535683      -0.00715174
H        1.66847272       2.43259709      -1.07075914       0.04143867      -0.01521954      -0.02926639       0.02403511      -0.02671074      -0.02476611
H       -0.01638690       2.29659717      -0.85448455       0.00244327       0.03060953       0.00835822       0.00978592       0.01908303      -0.00265469
15
Properties=species:S:1:pos:R:3:mp2_forces:R:3:forces:R:3 R1=CH3 R2=CN R3=H R4=NH2 lg=Br nu=Br rxn-id=2046 mp2_energy=-147250.308745421 energy=-147250.08421233503 free_energy=-147250.30874140467 pbc="F F F"
C        0.78017508      -0.30170482       0.16161246      -0.00813343       0.02895041       0.00690487      -0.03895202       0.00410173      -0.00287841
C        1.36176623       1.08515570       0.38573761      -0.00127604       0.02284699       0.00053859      -0.02254409       0.00036471      -0.00114020
H        2.44884176       1.00499714       0.28738239       0.01095514      -0.08987385       0.03159640      -0.02279047      -0.01141820       0.01142901
Br      -2.31849714       1.36369555      -1.46769166       0.00283324      -0.01371808      -0.00715577       0.00167878       0.02006174      -0.01460252
Br       4.61962129       1.36768714      -1.64990581       0.01792396       0.07175213      -0.05203069      -0.01729067      -0.01839059       0.02482421
H        1.12264545       1.39614989       1.41216694      -0.02984040      -0.04317181       0.04613973      -0.03132185       0.00351993      -0.00597600
C        1.06409709      -0.82677982      -1.23181695      -0.01235283       0.00651220       0.03531309      -0.00849497      -0.00069247      -0.00041185
H        0.30002773      -0.37458630      -1.87592117       0.02160128       0.00034386       0.03302560       0.01029414       0.01080140      -0.02133640
H        2.04740596      -0.46646515      -1.55232342      -0.02697076      -0.02618947       0.00961924       0.00684202      -0.01571784       0.02076744
H        1.00628218      -1.90574234      -1.27199296       0.01704944       0.00249977       0.02125076      -0.02296071      -0.00000622       0.00033135
C        1.08018922      -1.18213396       1.25607957      -0.04247566       0.02963638      -0.06728956       0.03634009      -0.00633880       0.00295920
N        1.14960673      -1.87727258       2.20286325       0.00814158      -0.01638364      -0.00166729       0.08960202      -0.01300532       0.00655770
N        0.88146264       1.96507976      -0.65588819      -0.00133736       0.01140512      -0.03533681      -0.00214855       0.00742868      -0.00357075
H        1.28903628       2.87133023      -0.59966527       0.04143867      -0.01521954      -0.02926639       0.01801818      -0.00955600      -0.00777663
H       -0.14269183       2.00453145      -0.74038792       0.00244327       0.03060953       0.00835822       0.00372809       0.02884724      -0.00917617
15
Properties=species:S:1:pos:R:3:mp2_forces:R:3:forces:R:3 R1=CH3 R2=CN R3=H R4=NH2 lg=Br nu=Br rxn-id=2046 mp2_energy=-147250.308745421 energy=-147250.11958390445 free_energy=-147250.30874140467 pbc="F F F"
C        1.49174299      -0.45852247       0.22064153      -0.00813343       0.02895041       0.00690487       0.04477627      -0.00855519       0.00086690
C        1.61167872       1.07753671       0.41239525      -0.00127604       0.02284699       0.00053859       0.01002568       0.00145101      -0.00003989
H        2.68635842       1.28609727       0.27375581       0.01095514      -0.08987385       0.03159640       0.00922110       0.02061764      -0.00114053
Br      -2.25279669       1.23753783      -1.15451198       0.00283324      -0.01371808      -0.00715577       0.00598233      -0.00573845       0.00781538
Br       4.54564967       1.70683844      -1.96282213       0.01792396       0.07175213      -0.05203069       0.00209330       0.00759876      -0.00790304
H        1.31673781       1.31013958       1.43491492      -0.02984040      -0.04317181       0.04613973       0.00478035      -0.00561665      -0.00033192
C        1.22314593      -0.85870025      -1.21233625      -0.01235283       0.00651220       0.03531309       0.00543316      -0.00045838      -0.00011698
H        0.23453711      -0.50057400      -1.49295648       0.02160128       0.00034386       0.03302560      -0.00550222       0.00184117       0.02277588
H        1.97912665      -0.35265916      -1.82993603      -0.02697076      -0.02618947       0.00961924      -0.00434414       0.00327444      -0.01820219
H        1.28202694      -1.93845717      -1.31567455       0.01704944       0.00249977       0.02125076       0.00478457      -0.00102780      -0.00459573
C        0.59496769      -1.06679510       1.16307994      -0.04247566       0.02963638      -0.06728956      -0.01842710       0.00205356      -0.00172396
N       -0.03541548      -1.61101684       1.99353174       0.00814158      -0.01638364      -0.00166729      -0.04860422       0.00593606      -0.00193815
N        0.91978155       1.79964130      -0.63074235      -0.00133736       0.01140512      -0.03533681      -0.00140796      -0.00661408       0.00029990
H        1.19364256       2.76697471      -0.63445534       0.04143867      -0.01521954      -0.02926639      -0.00753780      -0.00340092      -0.00200093
H       -0.10121517       1.72590104      -0.60463522       0.00244327       0.03060953       0.00835822      -0.00127331      -0.01136117       0.00623528
15
Properties=species:S:1:pos:R:3:mp2_forces:R:3:forces:R:3 R1=CH3 R2=CN R3=H R4=NH2 lg=Br nu=Br rxn-id=2046 mp2_energy=-147250.308745421 energy=-147250.1204965651 free_energy=-147250.30874140467 pbc="F F F"
C        1.53244167      -0.48217479       0.24933031      -0.00813343       0.02895041       0.00690487       0.00058763      -0.00063608       0.00109144
C        1.49995070       1.06547278       0.50332441      -0.00127604       0.02284699       0.00053859      -0.00214988      -0.00060520       0.00261710
H        2.53882861       1.34038293       0.73108328       0.01095514      -0.08987385       0.03159640      -0.00333322       0.00016931       0.01072846
Br      -2.17926312       1.41705710      -1.22756357       0.00283324      -0.01371808      -0.00715577       0.00297415       0.00414423      -0.00464738
Br       4.38763521       1.86174543      -2.34170565       0.01792396       0.07175213      -0.05203069      -0.00841933       0.00363092      -0.01233789
H        0.88121269       1.24217526       1.37470697      -0.02984040      -0.04317181       0.04613973      -0.00893342      -0.00177262      -0.00099566
C        1.18756209      -0.87787462      -1.16874991      -0.01235283       0.00651220       0.03531309      -0.00009953      -0.00042451       0.00117235
H        0.16667267      -0.55433993      -1.37998033       0.02160128       0.00034386       0.03302560      -0.00038443      -0.00063943       0.00167145
H        1.87562203      -0.33087460      -1.83216767      -0.02697076      -0.02618947       0.00961924      -0.00066413       0.00002109       0.00077158
H        1.28084292      -1.95155168      -1.29133498       0.01704944       0.00249977       0.02125076       0.00017232      -0.00035340       0.00088494
C        0.71464963      -1.17626566       1.21301450      -0.04247566       0.02963638      -0.06728956       0.00162838      -0.00215070       0.00115545