16
Properties=species:S:1:pos:R:3:mp2_forces:R:3:forces:R:3 R1=H R2=CH3 R3=CH3 R4=CN lg=Cl nu=F rxn-id=642 mp2_energy=-22010.505393606538 energy=-22010.50540102265 free_energy=-22010.50540102265 pbc="F F F"
C        0.32936471      -0.11109117       0.06958844      -0.00622241      -0.00502815      -0.00885329      -0.00627920      -0.00503014      -0.00885850
C        0.70751734       1.36414757       0.02919397      -0.00268978      -0.00945165      -0.00637637      -0.00271449      -0.00944259      -0.00641290
H        1.84538309       1.22157679      -0.01919122      -0.00783087       0.01175078       0.01138761      -0.00778719       0.01175354       0.01138665
Cl      -1.47529025      -0.36507066      -0.07780250      -0.00555115       0.00624842       0.02259057      -0.00550307       0.00625024       0.02259587
F        3.11749573       0.28930558      -0.06723287       0.03414217       0.04536799       0.07181682       0.03412384       0.04536448       0.07182155
H        0.76755581      -0.57754147      -0.81034376      -0.02855876       0.00279054      -0.02414248      -0.02854775       0.00279156      -0.02414241
C        0.86040275      -0.80518744       1.30507049      -0.00451436      -0.00686320      -0.01456786      -0.00450468      -0.00685616      -0.01457466
H        1.93254189      -0.57613075       1.28632378      -0.00852098      -0.00526010      -0.01658439      -0.00850982      -0.00525873      -0.01658738
H        0.36973150      -0.45068021       2.21466543       0.01742263      -0.00596660      -0.00598295       0.01741356      -0.00596202      -0.00597158
H        0.70705329      -1.88436124       1.22795902      -0.02031712      -0.00385415       0.00479586      -0.02032362      -0.00386529       0.00479382
C        0.25170451       2.17216005       1.24307445       0.00682022      -0.00746297      -0.01034005       0.00681906      -0.00745973      -0.01034819
H       -0.83412836       2.12228652       1.37513911       0.01027926      -0.00145955       0.01052490       0.01026681      -0.00146158       0.01052917
H        0.73416979       1.79877969       2.14795803       0.01973771       0.00196094      -0.01693473       0.01974405       0.00195712      -0.01692720
H        0.53328914       3.22169188       1.12541977       0.00766973      -0.00853866      -0.00679274       0.00766843      -0.00853615      -0.00679276
C        0.25773986       2.00146054      -1.19879158      -0.01006926       0.00802461      -0.02428675      -0.01004646       0.00800763      -0.02421966
N       -0.08672166       2.56255001      -2.17397806      -0.00179704      -0.02225823       0.01374584      -0.00181948      -0.02225218       0.01370818
16
Properties=species:S:1:pos:R:3:mp2_forces:R:3:forces:R:3 R1=H R2=CH3 R3=CH3 R4=CN lg=Cl nu=F rxn-id=642 mp2_energy=-22010.505393606538 energy=-22010.48767939498 free_energy=-22010.50540102265 pbc="F F F"
C        0.33675692      -0.10390147       0.06824263      -0.00622241      -0.00502815      -0.00885329      -0.01261091      -0.00649705      -0.00487282
C        0.71421511       1.37136064       0.02817212      -0.00268978      -0.00945165      -0.00637637      -0.00814243      -0.00864391      -0.00718353
H        1.84619828       1.23122388      -0.02363472      -0.00783087       0.01175078       0.01138761      -0.00227452      -0.01092801      -0.00164728
Cl      -1.46795847      -0.34992164      -0.08221757      -0.00555115       0.00624842       0.02259057      -0.01402312      -0.00577596       0.00329850
F        3.10556754       0.24525382      -0.08131760       0.03414217       0.04536799       0.07181682       0.03319777       0.07447222       0.07233645
H        0.78300758      -0.56573885      -0.80858119      -0.02855876       0.00279054      -0.02414248      -0.02432357      -0.01076289      -0.00984575
C        0.85424392      -0.79572662       1.31016695      -0.00451436      -0.00686320      -0.01456786      -0.00321525      -0.00589174      -0.00909748
H        1.92162567      -0.54668897       1.31683047      -0.00852098      -0.00526010      -0.01658439       0.00074406      -0.01487653      -0.02897965
H        0.32980803      -0.46920317       2.21204677       0.01742263      -0.00596660      -0.00598295       0.01913216       0.01416671      -0.00267975
H        0.73404797      -1.87696082       1.21463661      -0.02031712      -0.00385415       0.00479586      -0.02525546      -0.00501865       0.00612855
C        0.25795876       2.17103223       1.24430052       0.00682022      -0.00746297      -0.01034005       0.00802321      -0.00534842      -0.00348136
H       -0.82581977       2.10185476       1.38318715       0.01027926      -0.00145955       0.01052490       0.00845544       0.00804081       0.00762014
H        0.75474059       1.79548818       2.13987857       0.01973771       0.00196094      -0.01693473       0.01438452      -0.00947719      -0.00881665
H        0.52165588       3.22675690       1.13306179       0.00766973      -0.00853866      -0.00679274       0.02046811      -0.00825571      -0.00626147
C        0.25380753       2.00093941      -1.19975930      -0.01006926       0.00802461      -0.02428675      -0.00854157      -0.00518398      -0.00417662
N       -0.10204639       2.54812743      -2.17796068      -0.00179704      -0.02225823       0.01374584      -0.00601844      -0.00001969      -0.00234128
16
Properties=species:S:1:pos:R:3:mp2_forces:R:3:forces:R:3 R1=H R2=CH3 R3=CH3 R4=CN lg=Cl nu=F rxn-id=642 mp2_energy=-22010.505393606538 energy=-22010.47097897065 free_energy=-22010.50540102265 pbc="F F F"
C        0.34701343      -0.09866058       0.07260538      -0.00622241      -0.00502815      -0.00885329      -0.01655855      -0.00841456      -0.00508116
C        0.72010644       1.37857795       0.03438840      -0.00268978      -0.00945165      -0.00637637      -0.01098054      -0.01138976      -0.00642230
H        1.84703261       1.24027236      -0.02237887      -0.00783087       0.01175078       0.01138761      -0.00386549      -0.02101687      -0.00262671
Cl      -1.45618365      -0.34719930      -0.08465641      -0.00555115       0.00624842       0.02259057      -0.01625409      -0.01203432      -0.00477275
F        3.07543507       0.18111100      -0.14708627       0.03414217       0.04536799       0.07181682       0.04460662       0.08960739       0.07832903
H        0.80369090      -0.55677875      -0.79978061      -0.02855876       0.00279054      -0.02414248      -0.02400385      -0.01157080      -0.00854619
C        0.85714889      -0.79004726       1.31847116      -0.00451436      -0.00686320      -0.01456786      -0.00556807      -0.00601193      -0.00948017
H        1.92077726      -0.53207711       1.34239762      -0.00852098      -0.00526010      -0.01658439       0.00091539      -0.01732467      -0.04311525
H        0.31292290      -0.48125309       2.21465454       0.01742263      -0.00596660      -0.00598295       0.02529701       0.02112488       0.00141897
H        0.75751273      -1.87220710       1.21012830      -0.02031712      -0.00385415       0.00479586      -0.03425259      -0.00578766       0.01092312
C        0.25057477       2.17532501       1.24759530       0.00682022      -0.00746297      -0.01034005       0.00896103      -0.00562396      -0.00270701
H       -0.83359668       2.09574792       1.37728993       0.01027926      -0.00145955       0.01052490       0.00865388       0.01213348       0.00923911
H        0.74185615       1.80239238       2.14742899       0.01973771       0.00196094      -0.01693473       0.01443558      -0.00923094      -0.00732514
H        0.50475753       3.23328215       1.13930247       0.00766973      -0.00853866      -0.00679274       0.02503268      -0.00920920      -0.00731155
C        0.26184058       2.00582193      -1.19648353      -0.01006926       0.00802461      -0.02428675      -0.01017121      -0.00625905      -0.00246968
N       -0.09307979       2.54958817      -2.17682391      -0.00179704      -0.02225823       0.01374584      -0.00624780       0.00100794      -0.00005231
16
Properties=species:S:1:pos:R:3:mp2_forces:R:3:forces:R:3 R1=H R2=CH3 R3=CH3 R4=CN lg=Cl nu=F rxn-id=642 mp2_energy=-22010.505393606538 energy=-22010.44067064296 free_energy=-22010.50540102265 pbc="F F F"
C        0.36405356      -0.08975518       0.07809539      -0.00622241      -0.00502815      -0.00885329      -0.02807888      -0.01143448      -0.00368611
C        0.73129833       1.39062500       0.04069703      -0.00268978      -0.00945165      -0.00637637      -0.01712762      -0.01758663      -0.00327332
H        1.85068187       1.26238583      -0.01998766      -0.00783087       0.01175078       0.01138761      -0.00820030      -0.05388722      -0.00518351
Cl      -1.43957073      -0.33452741      -0.07812146      -0.00555115       0.00624842       0.02259057      -0.02165182      -0.02587705      -0.02412737
F        3.02777831       0.08620184      -0.22820869       0.03414217       0.04536799       0.07181682       0.06650582       0.11529487       0.07952795
H        0.82781180      -0.54484944      -0.79087871      -0.02855876       0.00279054      -0.02414248      -0.01653142      -0.00925156       0.00041847
C        0.86310473      -0.78362861       1.32849829      -0.00451436      -0.00686320      -0.01456786      -0.01266127      -0.00404322      -0.00882385
H        1.91936829      -0.51191330       1.38913833      -0.00852098      -0.00526010      -0.01658439      -0.00183748      -0.01315747      -0.07494190
H        0.28477136      -0.50556646       2.21298753       0.01742263      -0.00596660      -0.00598295       0.03476238       0.02907405       0.01413745
H        0.79623479      -1.86614770       1.19728798      -0.02031712      -0.00385415       0.00479586      -0.04539735      -0.00514596       0.01779492
C        0.24132876       2.18127445       1.25017068       0.00682022      -0.00746297      -0.01034005       0.01047065      -0.00451225      -0.00014534
H       -0.84238304       2.08278770       1.36826271       0.01027926      -0.00145955       0.01052490       0.00841248       0.02133622       0.01370887
H        0.72784777       1.81198472       2.15425399       0.01973771       0.00196094      -0.01693473       0.01367265      -0.00675348      -0.00330350
H        0.47821652       3.24309012       1.14668972       0.00766973      -0.00853866      -0.00679274       0.03206096      -0.00902865      -0.00846775
C        0.27266176       2.01265228      -1.19443461      -0.01006926       0.00802461      -0.02428675      -0.01105909      -0.00788060       0.00185393
N       -0.08539493       2.54928184      -2.17739803      -0.00179704      -0.02225823       0.01374584      -0.00333972       0.00285343       0.00451105
16
Properties=species:S:1:pos:R:3:mp2_forces:R:3:forces:R:3 R1=H R2=CH3 R3=CH3 R4=CN lg=Cl nu=F rxn-id=642 mp2_energy=-22010.505393606538 energy=-22010.40325099847 free_energy=-22010.50540102265 pbc="F F F"
C        0.38477534      -0.08121667       0.08085658      -0.00622241      -0.00502815      -0.00885329      -0.05057357      -0.01162325       0.00266779
C        0.74403098       1.40368329       0.04285678      -0.00268978      -0.00945165      -0.00637637      -0.02783746      -0.02466402       0.00276127
H        1.85685799       1.30221543      -0.01626189      -0.00783087       0.01175078       0.01138761      -0.01807033      -0.12605136      -0.01080844
Cl      -1.42368392      -0.31493317      -0.05970140      -0.00555115       0.00624842       0.02259057      -0.02609309      -0.04015257      -0.04841427
F        2.97967532       0.00156283      -0.28398020       0.03414217       0.04536799       0.07181682       0.10890788       0.13574472       0.06645047
H        0.83956892      -0.53798448      -0.79134880      -0.02855876       0.00279054      -0.02414248       0.00944902       0.00360386       0.02554142
C        0.87263803      -0.78094986       1.33473832      -0.00451436      -0.00686320      -0.01456786      -0.02845274       0.00241138      -0.00557214
H        1.92110321      -0.50291851       1.44354918      -0.00852098      -0.00526010      -0.01658439      -0.01065040       0.00838724      -0.12606235
H        0.25977469      -0.52731381       2.20261086       0.01742263      -0.00596660      -0.00598295       0.03982098       0.02584816       0.04005139
H        0.82933857      -1.86261123       1.18363388      -0.02031712      -0.00385415       0.00479586      -0.05027667      -0.00048873       0.01852229
C        0.23371281       2.18476134       1.24995111       0.00682022      -0.00746297      -0.01034005       0.01044308       0.00055176       0.00380802
H       -0.84859561       2.06781817       1.35732687       0.01027926      -0.00145955       0.01052490       0.00558568       0.03509089       0.02188050
H        0.71725312       1.81656801       2.15644274       0.01973771       0.00196094      -0.01693473       0.01185048      -0.00198452       0.00065451
H        0.45535196       3.24979774       1.15291730       0.00766973      -0.00853866      -0.00679274       0.03539797      -0.00407234      -0.00727813
C        0.28034243       2.01841739      -1.19593865      -0.01006926       0.00802461      -0.02428675      -0.01001200      -0.00699120       0.00718892
N       -0.08433471       2.54699924      -2.18060018      -0.00179704      -0.02225823       0.01374584       0.00051116       0.00438999       0.00860877
16
Properties=species:S:1:pos:R:3:mp2_forces:R:3:forces:R:3 R1=H R2=CH3 R3=CH3 R4=CN lg=Cl nu=F rxn-id=642 mp2_energy=-22010.505393606538 energy=-22010.29736273586 free_energy=-22010.50540102265 pbc="F F F"
C        0.42906310      -0.07091651       0.07866046      -0.00622241      -0.00502815      -0.00885329      -0.17657023      -0.00089241       0.02674055
C        0.76835708       1.42541545       0.04031707      -0.00268978      -0.00945165      -0.00637637      -0.06948519      -0.03632997       0.01447722
H        1.87262048       1.41254866      -0.00695936      -0.00783087       0.01175078       0.01138761      -0.04855230      -0.29651742      -0.02010195
Cl      -1.40074105      -0.27956644      -0.01691924      -0.00555115       0.00624842       0.02259057       0.02222278      -0.04449060      -0.07472341
F        2.88488831      -0.11724069      -0.34127763       0.03414217       0.04536799       0.07181682       0.26804811       0.11681533       0.00286979
H        0.83139056      -0.54096745      -0.81355919      -0.02855876       0.00279054      -0.02414248       0.10197982       0.05520874       0.10727349
C        0.89759579      -0.78319668       1.33958921      -0.00451436      -0.00686320      -0.01456786      -0.08142587       0.02125149      -0.00314383
H        1.93054826      -0.51046868       1.55366074      -0.00852098      -0.00526010      -0.01658439      -0.03735405       0.06913754      -0.23494728
H        0.22502792      -0.55048449       2.16772947       0.01742263      -0.00596660      -0.00598295       0.03990505      -0.00752803       0.10626677
H        0.87337450      -1.86229125       1.16701873      -0.02031712      -0.00385415       0.00479586      -0.04433265       0.01476216       0.00414206
C        0.22456536       2.18445632       1.24647777       0.00682022      -0.00746297      -0.01034005       0.00121135       0.01702689       0.00959283
H       -0.85360859       2.03795356       1.33759775       0.01027926      -0.00145955       0.01052490      -0.00627347       0.06443407       0.04138181
H        0.70628680       1.81777235       2.15574038       0.01973771       0.00196094      -0.01693473       0.00677188       0.00383054       0.00005975
H        0.42510666       3.25344109       1.15963200       0.00766973      -0.00853866      -0.00679274       0.03033171       0.01066659       0.00065230
C        0.28879422       2.02453678      -1.20237185      -0.01006926       0.00802461      -0.02428675      -0.00566582       0.00655528       0.01136116
N       -0.08546024       2.54290364      -2.18828380      -0.00179704      -0.02225823       0.01374584      -0.00081112       0.00606981       0.00809873
16
Properties=species:S:1:pos:R:3:mp2_forces:R:3:forces:R:3 R1=H R2=CH3 R3=CH3 R4=CN lg=Cl nu=F rxn-id=642 mp2_energy=-22010.505393606538 energy=-22010.09131795832 free_energy=-22010.50540102265 pbc="F F F"
C        0.50176427      -0.07054198       0.06769868      -0.00622241      -0.00502815      -0.00885329      -0.96674931      -0.00604072       0.06321596
C        0.79689131       1.44040609       0.03430899      -0.00268978      -0.00945165      -0.00637637      -0.12407565      -0.05652430       0.01094046
H        1.89253075       1.53467888       0.00118625      -0.00783087       0.01175078       0.01138761      -0.05473327      -0.37796822      -0.02621718
Cl      -1.40969898      -0.26129592       0.01379354      -0.00555115       0.00624842       0.02259057       0.43672187       0.02089663      -0.03419082
F        2.77467884      -0.16523732      -0.34259787       0.03414217       0.04536799       0.07181682       0.59424103       0.03302774      -0.09899742
H        0.78960722      -0.56368028      -0.85760858      -0.02855876       0.00279054      -0.02414248       0.26119796       0.12270902       0.19095425
C        0.93107293      -0.79197038       1.34094269      -0.00451436      -0.00686320      -0.01456786      -0.13264394       0.03780443      -0.03801605
H        1.94588891      -0.53901709       1.65050156      -0.00852098      -0.00526010      -0.01658439      -0.04206484       0.10094849      -0.27294283
H        0.20854979      -0.54746202       2.12405929       0.01742263      -0.00596660      -0.00598295       0.04057264      -0.04907285       0.15681741
H        0.89154627      -1.86839490       1.16533685      -0.02031712      -0.00385415       0.00479586      -0.01486666       0.01726672      -0.00798400
C        0.22406244       2.17747785       1.24252008       0.00682022      -0.00746297      -0.01034005      -0.00800276       0.02908471       0.00226700
H       -0.85107467       2.01176288       1.32047879       0.01027926      -0.00145955       0.01052490      -0.01199327       0.07372688       0.04801830
H        0.70335343       1.81592976       2.15566249       0.01973771       0.00196094      -0.01693473       0.00231388       0.00161116      -0.00915176
H        0.41292195       3.24904114       1.15955986       0.00766973      -0.00853866      -0.00679274       0.01465615       0.01609147       0.00984163
C        0.29099248       2.02183254      -1.20710189      -0.01006926       0.00802461      -0.02428675       0.01874142       0.03361144       0.00529792
N       -0.08527781       2.54036645      -2.19168824      -0.00179704      -0.02225823       0.01374584      -0.01331525       0.00282739       0.00014714
16
Properties=species:S:1:pos:R:3:mp2_forces:R:3:forces:R:3 R1=H R2=CH3 R3=CH3 R4=CN lg=Cl nu=F rxn-id=642 mp2_energy=-22010.505393606538 energy=-22009.874003163077 free_energy=-22010.50540102265 pbc="F F F"
C        0.59451825      -0.06996057       0.06164466      -0.00622241      -0.00502815      -0.00885329      -1.28553150      -0.01771179       0.08611584
C        0.80877484       1.44583833       0.03324660      -0.00268978      -0.00945165      -0.00637637      -0.05561211      -0.03439118      -0.00026351
H        1.89775801       1.57096181       0.00366781      -0.00783087       0.01175078       0.01138761      -0.01294119      -0.23104144      -0.01926184
Cl      -1.45152183      -0.26330572       0.01706775      -0.00555115       0.00624842       0.02259057       0.55973151       0.04315917      -0.00494173
F        2.71769888      -0.16838881      -0.33311417       0.03414217       0.04536799       0.07181682       0.51532953       0.00312342      -0.09216768
H        0.76457236      -0.57545422      -0.87590535      -0.02855876       0.00279054      -0.02414248       0.28605624       0.08128190       0.09958473
C        0.94378828      -0.79560553       1.34460222      -0.00451436      -0.00686320      -0.01456786      -0.04631608       0.01992633      -0.03401948
H        1.94991532      -0.54872771       1.67671013      -0.00852098      -0.00526010      -0.01658439      -0.00999535       0.06011841      -0.16049672
H        0.20464753      -0.54277630       2.10903239       0.01742263      -0.00596660      -0.00598295       0.03253215      -0.03668817       0.10278991
H        0.89295788      -1.87006041       1.16610601      -0.02031712      -0.00385415       0.00479586       0.00206947       0.00450176      -0.00083416
C        0.22482846       2.17469650       1.24229957       0.00682022      -0.00746297      -0.01034005       0.00079901       0.01928198      -0.00545204
H       -0.84993683       2.00477042       1.31585109       0.01027926      -0.00145955       0.01052490      -0.00406832       0.04514093       0.02742839
H        0.70309553       1.81571368       2.15652767       0.01973771       0.00196094      -0.01693473      -0.00036758       0.00168521      -0.00681999
H        0.41158721       3.24749704       1.15866007       0.00766973      -0.00853866      -0.00679274       0.00659352       0.01030101       0.00809082
C        0.28915918       2.01860853      -1.20762617      -0.01006926       0.00802461      -0.02428675       0.02261081       0.02962921       0.00204505
N       -0.08403393       2.54008866      -2.19171779      -0.00179704      -0.02225823       0.01374584      -0.01089013       0.00168326      -0.00179759
16
Properties=species:S:1:pos:R:3:mp2_forces:R:3:forces:R:3 R1=H R2=CH3 R3=CH3 R4=CN lg=Cl nu=F rxn-id=642 mp2_energy=-22010.505393606538 energy=-22009.764251120374 free_energy=-22010.50540102265 pbc="F F F"
C        0.68920948      -0.06865655       0.05530688      -0.00622241      -0.00502815      -0.00885329      -0.19357295      -0.00074339       0.01695288
C        0.81286295       1.44838179       0.03325422      -0.00268978      -0.00945165      -0.00637637      -0.00594347      -0.00229652      -0.00032796
H        1.89869748       1.58802489       0.00506059      -0.00783087       0.01175078       0.01138761      -0.00057801      -0.03466869      -0.00339690
Cl      -1.49266762      -0.26648307       0.01743088      -0.00555115       0.00624842       0.02259057       0.07278694       0.00478232      -0.00046144
F        2.67973610      -0.16861136      -0.32633177       0.03414217       0.04536799       0.07181682       0.07367406       0.00126195      -0.01148128
H        0.74350655      -0.58145006      -0.88323529      -0.02855876       0.00279054      -0.02414248       0.04882374       0.00965123       0.00832991
C        0.94720071      -0.79708207       1.34711761      -0.00451436      -0.00686320      -0.01456786      -0.00335597       0.00162555      -0.00277779
H        1.95064815      -0.55318585       1.68857084      -0.00852098      -0.00526010      -0.01658439      -0.00028273       0.00853104      -0.02375474
H        0.20224194      -0.54008803       2.10146486       0.01742263      -0.00596660      -0.00598295       0.00502447      -0.00601610       0.01510459
H        0.89279462      -1.87040096       1.16617139      -0.02031712      -0.00385415       0.00479586       0.00053825       0.00053412      -0.00010616
C        0.22476911       2.17328149       1.24269788       0.00682022      -0.00746297      -0.01034005       0.00076585       0.00315364      -0.00114426
H       -0.84964608       2.00150290       1.31381149       0.01027926      -0.00145955       0.01052490      -0.00029079       0.00685752       0.00315339
H        0.70309412       1.81554188       2.15702075       0.01973771       0.00196094      -0.01693473      -0.00030747      -0.00010931      -0.00113888
H        0.41115427       3.24673717       1.15809866       0.00766973      -0.00853866      -0.00679274       0.00169749       0.00189805       0.00168181
C        0.28746679       2.01642374      -1.20778761      -0.01006926       0.00802461      -0.02428675       0.00310619       0.00509436      -0.00001341
N       -0.08325944       2.53995976      -2.19159888      -0.00179704      -0.02225823       0.01374584      -0.00208561       0.00044424      -0.00061977
16
Properties=species:S:1:pos:R:3:mp2_forces:R:3:forces:R:3 R1=H R2=CH3 R3=CH3 R4=CN lg=Cl nu=F rxn-id=642 mp2_energy=-22010.505393606538 energy=-22009.817186982084 free_energy=-22010.50540102265 pbc="F F F"
C        0.78824183      -0.06922527       0.04475238      -0.00622241      -0.00502815      -0.00885329       0.93943476      -0.00540163      -0.10005236
C        0.81461343       1.44827678       0.03341584      -0.00268978      -0.00945165      -0.00637637       0.01649192      -0.00085863       0.00137591
H        1.89814679       1.60626518       0.00670507      -0.00783087       0.01175078       0.01138761      -0.00542187       0.17360693       0.01522857
Cl      -1.52318192      -0.26806673       0.01751027      -0.00555115       0.00624842       0.02259057      -0.28828812      -0.01500148       0.00073046
F        2.64386984      -0.16954698      -0.32168764       0.03414217       0.04536799       0.07181682      -0.34034099      -0.00876710       0.04401044
H        0.71576262      -0.58523545      -0.88417676      -0.02855876       0.00279054      -0.02414248      -0.26310401      -0.03601981      -0.00885282
C        0.94716482      -0.79735099       1.34751376      -0.00451436      -0.00686320      -0.01456786      -0.00032302      -0.00266508       0.00388659
H        1.95015174      -0.55767530       1.70100039      -0.00852098      -0.00526010      -0.01658439      -0.00476126      -0.04299132       0.11839654
H        0.19949638      -0.53695059       2.09396750       0.01742263      -0.00596660      -0.00598295      -0.02616209       0.02956235      -0.07105972
H        0.89227202      -1.87071662       1.16626650      -0.02031712      -0.00385415       0.00479586      -0.00510467      -0.00311446       0.00095470
C        0.22405782       2.17161282       1.24339898       0.00682022      -0.00746297      -0.01034005      -0.00674985      -0.01575515       0.00660427
H       -0.84976649       1.99869094       1.31243656       0.01027926      -0.00145955       0.01052490      -0.00126206      -0.02588801      -0.01329501
H        0.70301758       1.81517694       2.15754311       0.01973771       0.00196094      -0.01693473      -0.00110876      -0.00410644       0.00483137
H        0.41060515       3.24558489       1.15744696       0.00766973      -0.00853866      -0.00679274      -0.00449107      -0.01094024      -0.00571185
C        0.28567506       2.01347725      -1.20776490      -0.01006926       0.00802461      -0.02428675      -0.01737579      -0.02798333       0.00006137
N       -0.08231754       2.53957881      -2.19127553      -0.00179704      -0.02225823       0.01374584       0.00856686      -0.00367659       0.00289152
16
Properties=species:S:1:pos:R:3:mp2_forces:R:3:forces:R:3 R1=H R2=CH3 R3=CH3 R4=CN lg=Cl nu=F rxn-id=642 mp2_energy=-22010.505393606538 energy=-22010.061358801486 free_energy=-22010.50540102265 pbc="F F F"
C        0.89578800      -0.07273583       0.02856751      -0.00622241      -0.00502815      -0.00885329       2.30669965      -0.07530231      -0.34707719
C        0.81651989       1.44679443       0.03347892      -0.00268978      -0.00945165      -0.00637637       0.04077804      -0.03165276       0.00118468
H        1.89755808       1.62541066       0.00864181      -0.00783087       0.01175078       0.01138761      -0.01283635       0.41119262       0.04116090
Cl      -1.55148066      -0.26977351       0.01700048      -0.00555115       0.00624842       0.02259057      -0.60579636      -0.03658877      -0.01095856
F        2.59528698      -0.17065800      -0.31574354       0.03414217       0.04536799       0.07181682      -1.04217332      -0.02372200       0.12747407
H        0.68910331      -0.58663556      -0.88067647      -0.02855876       0.00279054      -0.02414248      -0.57168984      -0.03013303       0.07516161
C        0.94719600      -0.79678074       1.34614539      -0.00451436      -0.00686320      -0.01456786       0.00069743       0.01212079      -0.02922697
H        1.94967852      -0.56231507       1.71426032      -0.00852098      -0.00526010      -0.01658439      -0.01020894      -0.09991320       0.28486625
H        0.19717745      -0.53346472       2.08656740       0.01742263      -0.00596660      -0.00598295      -0.04985024       0.07456545      -0.15865373
H        0.89196916      -1.87117421       1.16668301      -0.02031712      -0.00385415       0.00479586      -0.00664055      -0.00993169       0.00898403
C        0.22305579       2.16991786       1.24409753       0.00682022      -0.00746297      -0.01034005      -0.02149366      -0.03627897       0.01493439
H       -0.84995846       1.99630259       1.31148953       0.01027926      -0.00145955       0.01052490      -0.00423647      -0.05043749      -0.02055872
H        0.70289457       1.81495199       2.15814113       0.01973771       0.00196094      -0.01693473      -0.00301904      -0.00546778       0.01270392
H        0.41001124       3.24440711       1.15686693       0.00766973      -0.00853866      -0.00679274      -0.01201975      -0.02526837      -0.01196941
C        0.28431865       2.01040928      -1.20759681      -0.01006926       0.00802461      -0.02428675      -0.02943550      -0.06588740       0.00354830
N       -0.08130938       2.53923941      -2.19087066      -0.00179704      -0.02225823       0.01374584       0.02122493      -0.00729509       0.00842643
16
Properties=species:S:1:pos:R:3:mp2_forces:R:3:forces:R:3 R1=H R2=CH3 R3=CH3 R4=CN lg=Cl nu=F rxn-id=642 mp2_energy=-22010.505393606538 energy=-22010.782473168256 free_energy=-22010.50540102265 pbc="F F F"