18
Properties=species:S:1:pos:R:3:mp2_forces:R:3:forces:R:3 R1=NH2 R2=CN R3=CH3 R4=CH3 lg=Cl nu=Cl rxn-id=2653 mp2_energy=-33310.92382286445 energy=-33310.92382286445 free_energy=-33310.92382286445 pbc="F F F"
C        0.56767648      -0.10043632       0.05727533       0.00443131      -0.04659405       0.06454128       0.00443131      -0.04659405       0.06454128
C        0.89928137       1.39938698       0.03671333       0.02238776      -0.01867533      -0.00423926       0.02238776      -0.01867533      -0.00423926
H        1.99674442       1.37879545       0.06706453       0.03609961       0.05798956       0.01878741       0.03609961       0.05798956       0.01878741
Cl      -1.30240728      -0.29075650      -0.00080226       0.02327370      -0.01447061       0.01217823       0.02327370      -0.01447061       0.01217823
Cl       4.18599050      -0.12085627      -0.28023228       0.02853385       0.04510070      -0.05969970       0.02853385       0.04510070      -0.05969970
N        1.15904170      -0.84081871      -1.00019045      -0.01704369      -0.03079900       0.02125035      -0.01704369      -0.03079900       0.02125035
H        1.58090578      -0.20175863      -1.66108161      -0.03153733      -0.02596407      -0.01915552      -0.03153733      -0.02596407      -0.01915552
H        1.94602279      -1.37567245      -0.64429456       0.00641693       0.01646374       0.00244876       0.00641693       0.01646374       0.00244876
C        0.91930489      -0.68204886       1.35781636      -0.02998366      -0.02902721      -0.00911776      -0.02998366      -0.02902721      -0.00911776
N        1.19254302      -1.14129742       2.40357851      -0.04257412      -0.00723553       0.04304487      -0.04257412      -0.00723553       0.04304487
C        0.36870854       2.16971878       1.24120301       0.00456833      -0.02718163      -0.04494192       0.00456833      -0.02718163      -0.04494192
H       -0.72407401       2.21386137       1.23204354       0.02458270       0.01314647       0.01313540       0.02458270       0.01314647       0.01313540
H        0.69425158       1.72392546       2.18498477      -0.01577993       0.00864184      -0.05203502      -0.01577993       0.00864184      -0.05203502
H        0.75919375       3.19177515       1.20075716      -0.04162619      -0.03347508       0.04658082      -0.04162619      -0.03347508       0.04658082
C        0.44734521       2.05464137      -1.26617955      -0.00959971       0.02205360      -0.01083842      -0.00959971       0.02205360      -0.01083842
H        0.99039778       1.68947725      -2.14047681       0.02135452      -0.00997414       0.01891274       0.02135452      -0.00997414       0.01891274
H       -0.61911295       1.89309500      -1.43149908      -0.03119086       0.03956496      -0.01167499      -0.03119086       0.03956496      -0.01167499
H        0.62421445       3.13027157      -1.20494373       0.04768677       0.04043580      -0.02917729       0.04768677       0.04043580      -0.02917729
18
Properties=species:S:1:pos:R:3:mp2_forces:R:3:forces:R:3 R1=NH2 R2=CN R3=CH3 R4=CH3 lg=Cl nu=Cl rxn-id=2653 mp2_energy=-33310.92382286445 energy=-33311.252072524534 free_energy=-33310.92382286445 pbc="F F F"
C        0.56656209      -0.09229556       0.09766621       0.00443131      -0.04659405       0.06454128      -0.00036645      -0.00033055       0.00118172
C        0.91303041       1.40298976       0.08759544       0.02238776      -0.01867533      -0.00423926       0.00035981      -0.00041058       0.00146378
H        2.00663208       1.40140462       0.18130988       0.03609961       0.05798956       0.01878741       0.00015675      -0.00074602       0.00338379
Cl      -1.25451919      -0.33046804      -0.07667481       0.02327370      -0.01447061       0.01217823      -0.00069090       0.00057868      -0.00041301
Cl       4.13437514       0.57054099      -1.09912336       0.02853385       0.04510070      -0.05969970      -0.00372786       0.00221230      -0.01750588
N        1.20351917      -0.77252014      -0.97801460      -0.01704369      -0.03079900       0.02125035       0.00008035      -0.00102912       0.00222052
H        2.17846229      -0.44308991      -1.06443966      -0.03153733      -0.02596407      -0.01915552      -0.00140315       0.00128878      -0.00158120
H        1.19834199      -1.77370118      -0.82301476       0.00641693       0.01646374       0.00244876       0.00316611      -0.00062974       0.00406194
C        0.85517784      -0.67406050       1.42351116      -0.02998366      -0.02902721      -0.00911776      -0.00198191      -0.00016865       0.00146910
N        1.10549736      -1.15943431       2.46513958      -0.04257412      -0.00723553       0.04304487      -0.00329492       0.00009041       0.00190384
C        0.30042709       2.16104564       1.26147240       0.00456833      -0.02718163      -0.04494192      -0.00145745      -0.00017700       0.00030296
H       -0.79181595       2.14686693       1.20895163       0.02458270       0.01314647       0.01313540      -0.00130620       0.00014449      -0.00172257
H        0.60559515       1.74240887       2.22197952      -0.01577993       0.00864184      -0.05203502      -0.00341614      -0.00024467       0.00082920
H        0.62445019       3.20742321       1.22942684      -0.04162619      -0.03347508       0.04658082      -0.00114900      -0.00025356       0.00092323
C        0.56994804       2.04743345      -1.24930200      -0.00959971       0.02205360      -0.01083842       0.00310951      -0.00021812       0.00091635
H        1.05042132       1.51903809      -2.07060622       0.02135452      -0.00997414       0.01891274       0.00746322       0.00211666       0.00236044
H       -0.51002610       2.05576702      -1.41387988      -0.03119086       0.03956496      -0.01167499       0.00399778      -0.00279207      -0.00273024
H        0.92994910       3.08195426      -1.25026115       0.04768677       0.04043580      -0.02917729       0.00046046       0.00056876       0.00293605
18
Properties=species:S:1:pos:R:3:mp2_forces:R:3:forces:R:3 R1=NH2 R2=CN R3=CH3 R4=CH3 lg=Cl nu=Cl rxn-id=2653 mp2_energy=-33310.92382286445 energy=-33311.235983878774 free_energy=-33310.92382286445 pbc="F F F"
C        0.55888359      -0.10057320       0.14580430       0.00443131      -0.04659405       0.06454128      -0.00638987      -0.00064527      -0.00156566
C        0.92581147       1.39398320       0.14971574       0.02238776      -0.01867533      -0.00423926      -0.00321218      -0.00122003      -0.00353037
H        2.00957471       1.38510171       0.32843672       0.03609961       0.05798956       0.01878741      -0.00188842      -0.00370649      -0.00775041
Cl      -1.27645729      -0.30679390      -0.09157120       0.02327370      -0.01447061       0.01217823       0.02474064      -0.00572414       0.00805517
Cl       3.97746055       0.57961950      -1.81418736       0.02853385       0.04510070      -0.05969970       0.01394206       0.00671712       0.03670751
N        1.21638529      -0.80370453      -0.88805828      -0.01704369      -0.03079900       0.02125035      -0.01197325      -0.00169828      -0.01210389
H        2.12177907      -0.38221407      -1.13794051      -0.03153733      -0.02596407      -0.01915552       0.00080806      -0.00409723       0.00729777
H        1.34731772      -1.78399137      -0.65894127       0.00641693       0.01646374       0.00244876      -0.01961350      -0.00320437      -0.01169834
C        0.78570375      -0.67937627       1.48014115      -0.02998366      -0.02902721      -0.00911776       0.00621503       0.00103680      -0.00081475
N        0.98510636      -1.15895947       2.53553827      -0.04257412      -0.00723553       0.04304487       0.01243457       0.00170219      -0.00131778
C        0.23365555       2.15796043       1.27364665       0.00456833      -0.02718163      -0.04494192       0.00191067       0.00138959      -0.00129209
H       -0.85020420       2.16126951       1.12999750       0.02458270       0.01314647       0.01313540       0.00140715       0.00884103      -0.00065712
H        0.44985900       1.73086412       2.25433559      -0.01577993       0.00864184      -0.05203502      -0.00030099      -0.00152306      -0.00201333
H        0.57476582       3.19965258       1.27516757      -0.04162619      -0.03347508       0.04658082       0.00794576      -0.00028100       0.00014153
C        0.69151056       2.04146985      -1.20984670      -0.00959971       0.02205360      -0.01083842      -0.00617477       0.00024511      -0.00261845
H        1.35634771       1.61744358      -1.96184361       0.02135452      -0.00997414       0.01891274      -0.00955497      -0.00162247      -0.00456959
H       -0.34325483       1.92846025      -1.52702227      -0.03119086       0.03956496      -0.01167499      -0.00762519       0.00412668       0.00020736
H        0.92178321       3.11109128      -1.13163608       0.04768677       0.04043580      -0.02917729      -0.00267079      -0.00033615      -0.00247757
18
Properties=species:S:1:pos:R:3:mp2_forces:R:3:forces:R:3 R1=NH2 R2=CN R3=CH3 R4=CH3 lg=Cl nu=Cl rxn-id=2653 mp2_energy=-33310.92382286445 energy=-33310.8654094283 free_energy=-33310.92382286445 pbc="F F F"
C        0.67503729      -0.08738832       0.18157661       0.00443131      -0.04659405       0.06454128      -0.03911252      -0.00073759      -0.01263210
C        0.98293643       1.41783955       0.22633445       0.02238776      -0.01867533      -0.00423926      -0.01995237      -0.00240654      -0.00496116
H        2.03975719       1.45342436       0.49999159       0.03609961       0.05798956       0.01878741      -0.01826233      -0.01582185      -0.00575641
Cl      -1.70234749      -0.20024520      -0.24701626       0.02327370      -0.01447061       0.01217823       0.32233304      -0.01693155       0.06679154
Cl       3.69977315       0.43206634      -2.61057062       0.02853385       0.04510070      -0.05969970      -0.01453738      -0.00692894       0.01506110
N        1.43833736      -0.77676930      -0.65712802      -0.01704369      -0.03079900       0.02125035      -0.03799782      -0.00232394      -0.02038630
H        2.09936749      -0.29552190      -1.28248039      -0.03153733      -0.02596407      -0.01915552      -0.02511119      -0.01053148       0.00659394
H        1.73673178      -1.72143069      -0.41721722       0.00641693       0.01646374       0.00244876      -0.03935835       0.00245031      -0.00665645
C        0.65941395      -0.69792222       1.50190306      -0.02998366      -0.02902721      -0.00911776      -0.03704193      -0.00055881      -0.01118910
N        0.73762602      -1.19068844       2.56958913      -0.04257412      -0.00723553       0.04304487      -0.03305710      -0.00354663      -0.01301488
C        0.18210831       2.13285801       1.30073193       0.00456833      -0.02718163      -0.04494192      -0.00923398       0.00540305      -0.00138408
H       -0.89063655       1.99862566       1.13287359       0.02458270       0.01314647       0.01313540      -0.01050089       0.01884586       0.00069477
H        0.42781994       1.75853870       2.29708916      -0.01577993       0.00864184      -0.05203502      -0.01194963      -0.00054759      -0.00319681
H        0.41138354       3.20563799       1.28107174      -0.04162619      -0.03347508       0.04658082       0.00336799       0.00266497       0.00148542
C        0.82207677       2.03814972      -1.15353158      -0.00959971       0.02205360      -0.01083842      -0.00957577       0.00667844      -0.00271732
H        1.56510196       1.65496032      -1.85934751       0.02135452      -0.00997414       0.01891274      -0.01037570       0.00301563      -0.00171233
H       -0.17900331       1.84883562      -1.54042276      -0.03119086       0.03956496      -0.01167499      -0.00886485       0.01614484      -0.00771229
H        0.98054419       3.12033300      -1.07171071       0.04768677       0.04043580      -0.02917729      -0.00076919       0.00513182       0.00069244
18
Properties=species:S:1:pos:R:3:mp2_forces:R:3:forces:R:3 R1=NH2 R2=CN R3=CH3 R4=CH3 lg=Cl nu=Cl rxn-id=2653 mp2_energy=-33310.92382286445 energy=-33311.146512630985 free_energy=-33310.92382286445 pbc="F F F"
C        0.94435544      -0.08524280       0.27102430       0.00443131      -0.04659405       0.06454128       0.00019385       0.00328829       0.00048226
C        1.11808627       1.43090980       0.26063213       0.02238776      -0.01867533      -0.00423926       0.00714830       0.00255795       0.00127175
H        2.16677142       1.56587591       0.52904670       0.03609961       0.05798956       0.01878741       0.00787982      -0.00446923       0.00251127
Cl      -3.84468157      -0.11685386      -0.71411727       0.02327370      -0.01447061       0.01217823      -0.12929085      -0.07363824      -0.02367631
Cl       3.75698142       0.48084901      -2.65102398       0.02853385       0.04510070      -0.05969970       0.00327481      -0.00386250       0.00032190
N        1.65693639      -0.76294818      -0.61136687      -0.01704369      -0.03079900       0.02125035      -0.00565551       0.00035343      -0.00220889
H        2.27749230      -0.28039466      -1.27471523      -0.03153733      -0.02596407      -0.01915552      -0.00536832      -0.00039577      -0.00240354
H        1.99102433      -1.70018272      -0.38621604       0.00641693       0.01646374       0.00244876      -0.00131733       0.00210830       0.00148283
C        0.96485193      -0.68192486       1.59357538      -0.02998366      -0.02902721      -0.00911776       0.00348170       0.00247245       0.00059116
N        0.96094652      -1.17111756       2.66393573      -0.04257412      -0.00723553       0.04304487       0.00610298       0.00169332       0.00060820
C        0.24755190       2.10147245       1.31061210       0.00456833      -0.02718163      -0.04494192       0.01151928       0.00691986       0.00278749
H       -0.80968043       1.91475143       1.12023931       0.02458270       0.01314647       0.01313540       0.00992649       0.01739960       0.00454477
H        0.48316247       1.74754614       2.31590984      -0.01577993       0.00864184      -0.05203502       0.01031207       0.00344048       0.00209066
H        0.40501244       3.18456729       1.28414572      -0.04162619      -0.03347508       0.04658082       0.02012635       0.00585360       0.00522034
C        0.88329064       1.99417146      -1.13267770      -0.00959971       0.02205360      -0.01083842       0.01364110       0.00747710       0.00168663
H        1.62252840       1.63373425      -1.85049906       0.02135452      -0.00997414       0.01891274       0.01739531       0.00932788       0.00463316
H       -0.11177207       1.74962362      -1.49479318      -0.03119086       0.03956496      -0.01167499       0.01578882       0.01195897      -0.00669730
H        0.97317020       3.08646650      -1.08197568       0.04768677       0.04043580      -0.02917729       0.01484114       0.00751453       0.00675365
18
Properties=species:S:1:pos:R:3:mp2_forces:R:3:forces:R:3 R1=NH2 R2=CN R3=CH3 R4=CH3 lg=Cl nu=Cl rxn-id=2653 mp2_energy=-33310.92382286445 energy=-33311.02065572758 free_energy=-33310.92382286445 pbc="F F F"
C        1.05419636      -0.17326291       0.35090760       0.00443131      -0.04659405       0.06454128      -0.00129059      -0.00027584      -0.00033427
C        1.04520302       1.35140265       0.25768272       0.02238776      -0.01867533      -0.00423926      -0.00196398       0.00039028       0.00000810
H        2.08092543       1.62147132       0.47143080       0.03609961       0.05798956       0.01878741      -0.00192516       0.00081724       0.00079051
Cl      -3.44711385       1.15328542      -1.05566866       0.02327370      -0.01447061       0.01217823       0.02989929       0.00299946       0.00616061
Cl       3.72369964       0.61616821      -2.62319159       0.02853385       0.04510070      -0.05969970      -0.00418529      -0.00103203      -0.00509403
N        1.78535121      -0.80809967      -0.55063016      -0.01704369      -0.03079900       0.02125035      -0.00018099       0.00014175       0.00011836
H        2.34174028      -0.28392416      -1.24029573      -0.03153733      -0.02596407      -0.01915552      -0.00159150       0.00011713      -0.00107237
H        2.21849910      -1.70059179      -0.31203871       0.00641693       0.01646374       0.00244876       0.00178486       0.00103059       0.00121639
C        1.26780221      -0.67499758       1.69801595      -0.02998366      -0.02902721      -0.00911776      -0.00195345      -0.00071500       0.00007937
N        1.42952216      -1.08535831       2.78920433      -0.04257412      -0.00723553       0.04304487      -0.00230292      -0.00039030       0.00073591
C        0.12779188       1.96904414       1.29920311       0.00456833      -0.02718163      -0.04494192      -0.00243183      -0.00019592       0.00019659
H       -0.92243201       1.70890300       1.07286008       0.02458270       0.01314647       0.01313540      -0.00312483      -0.00183215       0.00018036
H        0.36406556       1.64147806       2.30946445      -0.01577993       0.00864184      -0.05203502      -0.00155963       0.00042454       0.00006206
H        0.21279830       3.05778786       1.26396497      -0.04162619      -0.03347508       0.04658082      -0.00357807      -0.00023129       0.00003545
C        0.67776269       1.81800713      -1.14103538      -0.00959971       0.02205360      -0.01083842      -0.00135126       0.00003765      -0.00064850
H        1.37991700       1.47573889      -1.89576018       0.02135452      -0.00997414       0.01891274      -0.00031553       0.00060816       0.00004818
H       -0.34470244       1.49077419      -1.39522899      -0.03119086       0.03956496      -0.01167499      -0.00172468      -0.00181152      -0.00127055
H        0.69100148       2.91347679      -1.14714837       0.04768677       0.04043580      -0.02917729      -0.00220444      -0.00008277      -0.00121217
18
Properties=species:S:1:pos:R:3:mp2_forces:R:3:forces:R:3 R1=NH2 R2=CN R3=CH3 R4=CH3 lg=Cl nu=Cl rxn-id=2653 mp2_energy=-33310.92382286445 energy=-33311.20632927725 free_energy=-33310.92382286445 pbc="F F F"
C        1.04486156      -0.12372693       0.38362854       0.00443131      -0.04659405       0.06454128       0.00110784       0.00037257       0.00034303
C        1.18636322       1.39594442       0.31418983       0.02238776      -0.01867533      -0.00423926       0.00036034       0.00043660       0.00092252
H        2.25628672       1.55774893       0.45745276       0.03609961       0.05798956       0.01878741       0.00016008       0.00092784       0.00228105
Cl      -5.13797192       0.33592610      -2.06949778       0.02327370      -0.01447061       0.01217823      -0.00000000      -0.00000000      -0.00000000
Cl       3.75476911       0.57114157      -2.56114568       0.02853385       0.04510070      -0.05969970      -0.00496253      -0.00371832      -0.00830914
N        1.66274821      -0.79871401      -0.57435235      -0.01704369      -0.03079900       0.02125035       0.00181068       0.00042024       0.00091833
H        2.26691294      -0.30375288      -1.24629237      -0.03153733      -0.02596407      -0.01915552      -0.00041863       0.00031114      -0.00109114
H        1.99562013      -1.74461525      -0.38594424       0.00641693       0.01646374       0.00244876       0.00368172       0.00110071       0.00151286
C        1.28270054      -0.66993574       1.70989198      -0.02998366      -0.02902721      -0.00911776      -0.00071949      -0.00020997       0.00034973
N        1.46714464      -1.11615273       2.78334154      -0.04257412      -0.00723553       0.04304487      -0.00253680      -0.00067700       0.00047076
C        0.41693478       2.07705806       1.43301866       0.00456833      -0.02718163      -0.04494192      -0.00116854      -0.00009722       0.00029043
H       -0.65745445       1.87847595       1.34152914       0.02458270       0.01314647       0.01313540      -0.00098684      -0.00060642      -0.00076703
H        0.74944154       1.74264404       2.41654803      -0.01577993       0.00864184      -0.05203502      -0.00199724      -0.00015479       0.00062009
H        0.56502781       3.15944531       1.37512029      -0.04162619      -0.03347508       0.04658082      -0.00156858       0.00002069       0.00074967
C        0.78168082       1.91821042      -1.05573562      -0.00959971       0.02205360      -0.01083842       0.00159968       0.00046919       0.00056585
H        1.46086445       1.57519408      -1.83573515       0.02135452      -0.00997414       0.01891274       0.00255527       0.00101451       0.00103993
H       -0.23993010       1.62288182      -1.30239435      -0.03119086       0.03956496      -0.01167499       0.00219119      -0.00015724      -0.00073113
H        0.83002801       3.01353006      -1.03188701       0.04768677       0.04043580      -0.02917729       0.00089182       0.00054746       0.00083417
18
Properties=species:S:1:pos:R:3:mp2_forces:R:3:forces:R:3 R1=NH2 R2=CN R3=CH3 R4=CH3 lg=Cl nu=Cl rxn-id=2653 mp2_energy=-33310.92382286445 energy=-33311.19273736465 free_energy=-33310.92382286445 pbc="F F F"
C        0.94856210      -0.10998119       0.40813466       0.00443131      -0.04659405       0.06454128       0.00127833       0.00155952      -0.00140197
C        1.24280801       1.38811756       0.29032519       0.02238776      -0.01867533      -0.00423926      -0.00114576       0.00237500       0.00046646
H        2.32980493       1.43031332       0.20143326       0.03609961       0.05798956       0.01878741      -0.00114231       0.00379929       0.00003327
Cl      -5.54403562      -0.26423575      -2.95136361       0.02327370      -0.01447061       0.01217823      -0.00000000      -0.00000000      -0.00000000
Cl       3.76021970       0.85070444      -2.18046906       0.02853385       0.04510070      -0.05969970       0.00300705      -0.03093590      -0.00709479
N        1.45977160      -0.82850673      -0.59605245      -0.01704369      -0.03079900       0.02125035       0.00598925       0.00484112      -0.00109390
H        2.14745549      -0.34563165      -1.20343513      -0.03153733      -0.02596407      -0.01915552       0.00887491       0.00477430       0.00299898
H        1.68674534      -1.80463364      -0.43200966       0.00641693       0.01646374       0.00244876       0.00606677       0.00444600      -0.00464518
C        1.25107981      -0.65703187       1.72333856      -0.02998366      -0.02902721      -0.00911776      -0.00044626       0.00019441      -0.00162299
N        1.49149315      -1.10953427       2.78316015      -0.04257412      -0.00723553       0.04304487      -0.00148190      -0.00038507      -0.00160240
C        0.77683317       2.15226664       1.51920692       0.00456833      -0.02718163      -0.04494192      -0.00175704       0.00011028       0.00176514
H       -0.30657697       2.04783682       1.65567838       0.02458270       0.01314647       0.01313540      -0.00179108      -0.00114790       0.00201232
H        1.27497505       1.80568884       2.42521845      -0.01577993       0.00864184      -0.05203502      -0.00115806      -0.00068148       0.00121946
H        0.99886082       3.21628360       1.39361355      -0.04162619      -0.03347508       0.04658082      -0.00277809       0.00048253       0.00335415
C        0.64460809       1.95828098      -0.98680044      -0.00959971       0.02205360      -0.01083842      -0.00271619       0.00262946       0.00117895
H        1.07700175       1.49204336      -1.86869996       0.02135452      -0.00997414       0.01891274      -0.00170434       0.00445028       0.00030942
H       -0.44217584       1.84567237      -0.99714892      -0.03119086       0.03956496      -0.01167499      -0.00273163      -0.00033758       0.00088057
H        0.88859742       3.02365037      -1.03239369       0.04768677       0.04043580      -0.02917729      -0.00636365       0.00382574       0.00324251
18
Properties=species:S:1:pos:R:3:mp2_forces:R:3:forces:R:3 R1=NH2 R2=CN R3=CH3 R4=CH3 lg=Cl nu=Cl rxn-id=2653 mp2_energy=-33310.92382286445 energy=-33311.01172405763 free_energy=-33310.92382286445 pbc="F F F"
C        0.89474181      -0.20073062       0.49320673       0.00443131      -0.04659405       0.06454128       0.00044514       0.00041442      -0.00053673
C        1.24530129       1.25112832       0.21952352       0.02238776      -0.01867533      -0.00423926      -0.00044412       0.00076601       0.00034218
H        2.32422966       1.25983441       0.04633029       0.03609961       0.05798956       0.01878741      -0.00050100       0.00125905       0.00016987
Cl      -5.41625278       0.01500671      -3.09685826       0.02327370      -0.01447061       0.01217823      -0.00000000      -0.00000000      -0.00000000
Cl       3.84060696       2.43848623      -1.51953650       0.02853385       0.04510070      -0.05969970       0.00085398      -0.01093476      -0.00478840
N        1.22085602      -1.05110154      -0.49145628      -0.01704369      -0.03079900       0.02125035       0.00241600       0.00124971      -0.00073849
H        1.80601514      -0.65989856      -1.23997300      -0.03153733      -0.02596407      -0.01915552       0.00342200       0.00231973       0.00052832
H        1.43983001      -2.01122107      -0.26238413       0.00641693       0.01646374       0.00244876       0.00287070       0.00133402      -0.00098802
C        1.33900828      -0.65922328       1.80063879      -0.02998366      -0.02902721      -0.00911776      -0.00072031       0.00020422      -0.00028994
N        1.69421959      -1.04194198       2.85562370      -0.04257412      -0.00723553       0.04304487      -0.00171783       0.00021505       0.00003619
C        0.92779830       2.14653480       1.40846463       0.00456833      -0.02718163      -0.04494192      -0.00083729      -0.00006463       0.00083406
H       -0.14342498       2.13265682       1.63747735       0.02458270       0.01314647       0.01313540      -0.00066941      -0.00124263       0.00140718
H        1.47893808       1.84693037       2.29979688      -0.01577993       0.00864184      -0.05203502      -0.00002093       0.00010618       0.00039475
H        1.21342592       3.17450024       1.16389061      -0.04162619      -0.03347508       0.04658082      -0.00211443       0.00036866       0.00122258
C        0.57160639       1.75577269      -1.05209633      -0.00959971       0.02205360      -0.01083842      -0.00070620       0.00095111       0.00056640
H        0.79849205       1.14220370      -1.91999296       0.02135452      -0.00997414       0.01891274       0.00045626       0.00188375       0.00027581
H       -0.51313957       1.80048450      -0.92345956      -0.03119086       0.03956496      -0.01167499      -0.00076105      -0.00039452       0.00016612
H        0.96377587       2.75188147      -1.26745927       0.04768677       0.04043580      -0.02917729      -0.00197150       0.00156462       0.00139810
18
Properties=species:S:1:pos:R:3:mp2_forces:R:3:forces:R:3 R1=NH2 R2=CN R3=CH3 R4=CH3 lg=Cl nu=Cl rxn-id=2653 mp2_energy=-33310.92382286445 energy=-33311.00272330419 free_energy=-33310.92382286445 pbc="F F F"
C        0.95230971      -0.26771350       0.60411560       0.00443131      -0.04659405       0.06454128       0.00325952       0.00670321      -0.00325369
C        1.30951745       1.14701822       0.18113082       0.02238776      -0.01867533      -0.00423926       0.00868828       0.00554149      -0.00515605
H        2.39043964       1.14235165       0.02070478       0.03609961       0.05798956       0.01878741       0.00626139       0.00224625      -0.00561586
Cl      -5.47886608       0.44088408      -3.24351422       0.02327370      -0.01447061       0.01217823      -0.00000000      -0.00000000      -0.00000000
Cl       3.62283235       3.76089544      -1.00518985       0.02853385       0.04510070      -0.05969970      -0.13490336      -0.09776314       0.06682364
N        1.00783614      -1.22153020      -0.31547937      -0.01704369      -0.03079900       0.02125035       0.00485323       0.00567621      -0.00236687
H        1.22707242      -0.95732063      -1.26768222      -0.03153733      -0.02596407      -0.01915552       0.00889128       0.00373881      -0.00068045
H        1.28484856      -2.16556907      -0.06190640       0.00641693       0.01646374       0.00244876       0.00107058       0.00475631      -0.00011646
C        1.54572878      -0.67047239       1.86602673      -0.02998366      -0.02902721      -0.00911776       0.00216803       0.00778032      -0.00295895
N        2.01542944      -0.99828448       2.89422404      -0.04257412      -0.00723553       0.04304487      -0.00128778       0.00610988      -0.00188908
C        1.00052291       2.14640339       1.28552283       0.00456833      -0.02718163      -0.04494192       0.01415895       0.00835485      -0.00536250
H       -0.07711288       2.20650152       1.46617838       0.02458270       0.01314647       0.01313540       0.01466851       0.01387600      -0.00615317
H        1.49489559       1.88678428       2.21952244      -0.01577993       0.00864184      -0.05203502       0.01382531       0.00599970      -0.00527176
H        1.36915797       3.13072394       0.96780190      -0.04162619      -0.03347508       0.04658082       0.01992596       0.00297660      -0.00704093
C        0.62372133       1.53315686      -1.12039028      -0.00959971       0.02205360      -0.01083842       0.00867051       0.00635490      -0.00566503
H        0.94576558       0.93820664      -1.96998448       0.02135452      -0.00997414       0.01891274       0.00120103      -0.00024652      -0.00432239