17
Properties=species:S:1:pos:R:3:mp2_forces:R:3:forces:R:3 R1=CH3 R2=H R3=CH3 R4=NH2 lg=F nu=F rxn-id=1902 mp2_energy=-11210.567431815902 energy=-11210.567419475838 free_energy=-11210.567419475838 pbc="F F F"
C        0.50570470      -0.03477538      -0.09158455      -0.01664788      -0.01436019       0.01677675      -0.01660562      -0.01433767       0.01680416
C        0.69797817       1.46561206      -0.13837575      -0.02848134       0.02157192      -0.02550877      -0.02843688       0.02153994      -0.02549121
H        1.76829954       1.57885153      -0.31750448      -0.02480368       0.01222210       0.00280797      -0.02482585       0.01223934       0.00279541
F       -0.90160481      -0.29086597       0.04386116       0.00292780      -0.07494764       0.04297473       0.00293218      -0.07494758       0.04297363
F        2.94577477       0.31399201       0.91404320       0.01170294       0.02418190       0.03203809       0.01171085       0.02418068       0.03204167
H        1.02758647      -0.40069991       0.78941357       0.00019231       0.02520553      -0.05151406       0.00016347       0.02519944      -0.05153752
C        0.99408489      -0.75532366      -1.32205084      -0.01301443       0.00596272      -0.02927701      -0.01303226       0.00596860      -0.02928473
H        0.36853937      -0.51267693      -2.18440535       0.07645581       0.03542323      -0.00705026       0.07646721       0.03541763      -0.00704585
H        2.02482121      -0.44481330      -1.48744185       0.02376499      -0.02156973       0.05994302       0.02376675      -0.02157809       0.05993767
H        0.99145814      -1.83616640      -1.15625541      -0.08548098      -0.02693952      -0.02475280      -0.08548252      -0.02694480      -0.02475908
C        0.41287398       2.05975520       1.23772190       0.02594641      -0.01907427       0.00595285       0.02594342      -0.01909531       0.00594083
H       -0.60131359       1.81144090       1.57199607       0.02437685      -0.00290309       0.01555462       0.02438944      -0.00289314       0.01555740
H        1.16349325       1.63536175       1.90776484       0.01427914       0.01302438      -0.01513124       0.01426725       0.01303967      -0.01512542
H        0.51802871       3.15190892       1.22864122      -0.00319374       0.00301442      -0.01673257      -0.00319733       0.00302369      -0.01672651
N       -0.10465995       2.02454883      -1.24012908      -0.06212293      -0.06582387       0.00442519      -0.06217711      -0.06587640       0.00443953
H       -0.00686762       3.03295232      -1.22761626       0.01222859       0.06480429       0.00896042       0.01222903       0.06482664       0.00895357
H       -1.07823803       1.82283149      -1.02825296       0.04187015       0.02020781      -0.01946691       0.04188797       0.02023737      -0.01947355
17
Properties=species:S:1:pos:R:3:mp2_forces:R:3:forces:R:3 R1=CH3 R2=H R3=CH3 R4=NH2 lg=F nu=F rxn-id=1902 mp2_energy=-11210.567431815902 energy=-11210.649437537595 free_energy=-11210.567419475838 pbc="F F F"
C        0.53183598      -0.04866640      -0.11007070      -0.01664788      -0.01436019       0.01677675       0.00333808      -0.00037034      -0.00145218
C        0.67017724       1.46165329      -0.16714202      -0.02848134       0.02157192      -0.02550877       0.00035924       0.00003540      -0.00154624
H        1.71416747       1.63552099      -0.42841470      -0.02480368       0.01222210       0.00280797      -0.00103613       0.00308903      -0.00523533
F       -0.85731523      -0.35103471       0.08969950       0.00292780      -0.07494764       0.04297473       0.00458617      -0.00271373       0.00431447
F        2.83543107       0.38885052       1.29307046       0.01170294       0.02418190       0.03203809      -0.01052504       0.00112948       0.03534846
H        1.10742946      -0.37949598       0.75639644       0.00019231       0.02520553      -0.05151406       0.00839200       0.00221707      -0.00293846
C        0.99992505      -0.75126752      -1.36001156      -0.01301443       0.00596272      -0.02927701      -0.00183243       0.00033275      -0.00431931
H        0.54994254      -0.30690341      -2.24988441       0.07645581       0.03542323      -0.00705026      -0.00641714       0.00072803      -0.00187521
H        2.08543537      -0.64844595      -1.40132441       0.02376499      -0.02156973       0.05994302      -0.00174555      -0.00056225      -0.01227732
H        0.75023512      -1.81534844      -1.31254336      -0.08548098      -0.02693952      -0.02475280      -0.00163104       0.00034423      -0.00338102
C        0.46735887       2.05861969       1.22179442       0.02594641      -0.01907427       0.00595285       0.00282635       0.00029663      -0.00125019
H       -0.51371919       1.78723132       1.62323962       0.02437685      -0.00290309       0.01555462       0.00279398       0.00126064      -0.00067469
H        1.28478890       1.64390446       1.82299804       0.01427914       0.01302438      -0.01513124       0.00347943      -0.00196326      -0.00297213
H        0.53838924       3.15387140       1.19014569      -0.00319374       0.00301442      -0.01673257       0.00392472       0.00017060      -0.00157124
N       -0.20483768       1.98207311      -1.23155883      -0.06212293      -0.06582387       0.00442519      -0.00242509      -0.00153630      -0.00030546
H       -0.06809098       2.98235726      -1.30016025       0.01222859       0.06480429       0.00896042      -0.00224291      -0.00173598      -0.00245072
H       -1.16519402       1.82901382      -0.93640850       0.04187015       0.02020781      -0.01946691      -0.00184463      -0.00072199       0.00258659
17
Properties=species:S:1:pos:R:3:mp2_forces:R:3:forces:R:3 R1=CH3 R2=H R3=CH3 R4=NH2 lg=F nu=F rxn-id=1902 mp2_energy=-11210.567431815902 energy=-11210.640399887965 free_energy=-11210.567419475838 pbc="F F F"
C        0.50499416      -0.04738746      -0.10233474      -0.01664788      -0.01436019       0.01677675       0.00166615      -0.00040123      -0.00099235
C        0.66253703       1.46056193      -0.16110722      -0.02848134       0.02157192      -0.02550877      -0.00111950       0.00007359      -0.00178809
H        1.71274888       1.61468830      -0.40984215      -0.02480368       0.01222210       0.00280797      -0.00271705       0.00337380      -0.00628395
F       -0.89251802      -0.33682092       0.05253088       0.00292780      -0.07494764       0.04297473       0.00249623      -0.00261318       0.00149528
F        2.89050031       0.38585764       1.09069274       0.01170294       0.02418190       0.03203809      -0.00961050      -0.00033098       0.02657852
H        1.04308875      -0.39353619       0.77807287       0.00019231       0.02520553      -0.05151406       0.00496123       0.00186994      -0.00160206
C        1.01741194      -0.75272202      -1.33181666      -0.01301443       0.00596272      -0.02927701       0.00012676       0.00030254      -0.00233976
H        0.60808338      -0.30469369      -2.23967387       0.07645581       0.03542323      -0.00705026       0.00121913       0.00305615      -0.00142838
H        2.10340159      -0.64807214      -1.31146162       0.02376499      -0.02156973       0.05994302       0.00063465      -0.00364856      -0.00420711
H        0.76211631      -1.81595966      -1.29706753      -0.08548098      -0.02693952      -0.02475280      -0.00283724       0.00097895      -0.00424456
C        0.45906560       2.05660629       1.22763529       0.02594641      -0.01907427       0.00595285       0.00311650       0.00008483      -0.00116032
H       -0.52019525       1.78425943       1.63327544       0.02437685      -0.00290309       0.01555462       0.00432082      -0.00019070       0.00154170
H        1.27694078       1.64898396       1.82985323       0.01427914       0.01302438      -0.01513124       0.00585276      -0.00135694      -0.00535369
H        0.52989033       3.15200406       1.19841155      -0.00319374       0.00301442      -0.01673257       0.00273193       0.00004954      -0.00156331
N       -0.20150550       1.99210105      -1.22783921      -0.06212293      -0.06582387       0.00442519      -0.00457823      -0.00133682       0.00007944
H       -0.06597279       2.99363957      -1.28219636       0.01222859       0.06480429       0.00896042      -0.00220066      -0.00171740      -0.00346349
H       -1.16462829       1.83242329      -0.94730721       0.04187015       0.02020781      -0.01946691      -0.00406297       0.00180647       0.00473212
17
Properties=species:S:1:pos:R:3:mp2_forces:R:3:forces:R:3 R1=CH3 R2=H R3=CH3 R4=NH2 lg=F nu=F rxn-id=1902 mp2_energy=-11210.567431815902 energy=-11210.630287965161 free_energy=-11210.567419475838 pbc="F F F"
C        0.48317743      -0.04395852      -0.09380456      -0.01664788      -0.01436019       0.01677675       0.00028129      -0.00119920      -0.00058972
C        0.66536008       1.46077376      -0.14903562      -0.02848134       0.02157192      -0.02550877      -0.00291856      -0.00058837      -0.00184889
H        1.72792904       1.58361379      -0.36631078      -0.02480368       0.01222210       0.00280797      -0.00513614       0.00357645      -0.00864347
F       -0.92127765      -0.31665472       0.02878204       0.00292780      -0.07494764       0.04297473       0.00094024      -0.00321879      -0.00129472
F        2.97301766       0.37422056       0.84100452       0.01170294       0.02418190       0.03203809      -0.00752676       0.00007615       0.01781547
H        0.98588556      -0.40805406       0.79661553       0.00019231       0.02520553      -0.05151406       0.00094125       0.00056148      -0.00005580
C        1.02524950      -0.75564755      -1.30497559      -0.01301443       0.00596272      -0.02927701       0.00273609       0.00062789      -0.00067350
H        0.62963358      -0.32241797      -2.22624699       0.07645581       0.03542323      -0.00705026       0.01127978       0.00831986      -0.00075961
H        2.10685047      -0.62671635      -1.24216531       0.02376499      -0.02156973       0.05994302       0.00345108      -0.00751291       0.00553416
H        0.78376386      -1.82215354      -1.26387139      -0.08548098      -0.02693952      -0.02475280      -0.00540040       0.00224962      -0.00759804
C        0.43779239       2.05759890       1.23559814       0.02594641      -0.01907427       0.00595285       0.00313018      -0.00055509      -0.00102030
H       -0.54782470       1.78769164       1.62802085       0.02437685      -0.00290309       0.01555462       0.00526328      -0.00183012       0.00352558
H        1.23803031       1.66149932       1.86554576       0.01427914       0.01302438      -0.01513124       0.00734263      -0.00059556      -0.00621781
H        0.51234876       3.15308245       1.20947572      -0.00319374       0.00301442      -0.01673257       0.00132521      -0.00051408      -0.00207396
N       -0.17157726       2.00978728      -1.22749198      -0.06212293      -0.06582387       0.00442519      -0.00907076      -0.00365956       0.00142236
H       -0.06332313       3.01669034      -1.23819506       0.01222859       0.06480429       0.00896042       0.00232925      -0.00508275      -0.01161670
H       -1.13907671       1.81257814      -0.99311984       0.04187015       0.02020781      -0.01946691      -0.00896767       0.00934498       0.01409496
17
Properties=species:S:1:pos:R:3:mp2_forces:R:3:forces:R:3 R1=CH3 R2=H R3=CH3 R4=NH2 lg=F nu=F rxn-id=1902 mp2_energy=-11210.567431815902 energy=-11210.628971227154 free_energy=-11210.567419475838 pbc="F F F"
C        0.48991710      -0.04056901      -0.09629725      -0.01664788      -0.01436019       0.01677675       0.00163140      -0.00149302      -0.00068562
C        0.67250713       1.46424331      -0.15112708      -0.02848134       0.02157192      -0.02550877      -0.00313115      -0.00108723      -0.00198942
H        1.73563456       1.58806391      -0.36492344      -0.02480368       0.01222210       0.00280797      -0.00597196       0.00529387      -0.01067798
F       -0.91360076      -0.31372156       0.03962936       0.00292780      -0.07494764       0.04297473       0.00221098      -0.00403922      -0.00051926
F        2.95287298       0.36960116       0.90768923       0.01170294       0.02418190       0.03203809      -0.00913879       0.00422131       0.02343811
H        1.00519657      -0.40151792       0.78897107       0.00019231       0.02520553      -0.05151406       0.00274304       0.00039174      -0.00020966
C        1.01519124      -0.75522644      -1.31374133      -0.01301443       0.00596272      -0.02927701       0.00305463       0.00061318      -0.00157627
H        0.59830185      -0.33375342      -2.23105215       0.07645581       0.03542323      -0.00705026       0.01292217       0.01101627      -0.00134373
H        2.09697086      -0.62041826      -1.28005869       0.02376499      -0.02156973       0.05994302       0.00451480      -0.01040734       0.00422621
H        0.78469413      -1.82363272      -1.25961437      -0.08548098      -0.02693952      -0.02475280      -0.00812812       0.00268837      -0.01007133
C        0.44311699       2.06092106       1.23337546       0.02594641      -0.01907427       0.00595285       0.00316805      -0.00119145      -0.00099810
H       -0.54393651       1.79349962       1.62297019       0.02437685      -0.00290309       0.01555462       0.00447162      -0.00130493       0.00251027
H        1.24287599       1.65995055       1.86126131       0.01427914       0.01302438      -0.01513124       0.00648729      -0.00271552      -0.00596776
H        0.52082346       3.15639472       1.20816468      -0.00319374       0.00301442      -0.01673257       0.00279592      -0.00120368      -0.00153509
N       -0.15937767       2.01605485      -1.23276382      -0.06212293      -0.06582387       0.00442519      -0.01168562      -0.00662547       0.00197952
H       -0.09196191       3.02702730      -1.20581417       0.01222859       0.06480429       0.00896042       0.00693268      -0.00740768      -0.01908862
H       -1.12326681       1.77501630      -1.02684358       0.04187015       0.02020781      -0.01946691      -0.01287694       0.01325080       0.02250872
17
Properties=species:S:1:pos:R:3:mp2_forces:R:3:forces:R:3 R1=CH3 R2=H R3=CH3 R4=NH2 lg=F nu=F rxn-id=1902 mp2_energy=-11210.567431815902 energy=-11210.624891318519 free_energy=-11210.567419475838 pbc="F F F"
C        0.50009517      -0.03457940      -0.10108715      -0.01664788      -0.01436019       0.01677675       0.00390987      -0.00305009      -0.00028159
C        0.68604715       1.47010156      -0.15319719      -0.02848134       0.02157192      -0.02550877      -0.00473038      -0.00236613      -0.00228748
H        1.75137267       1.59269860      -0.35837744      -0.02480368       0.01222210       0.00280797      -0.00864936       0.00693448      -0.01415317
F       -0.90247287      -0.30620356       0.05410782       0.00292780      -0.07494764       0.04297473       0.00544114      -0.00858244       0.00401715
F        2.92500687       0.38274385       1.01225648       0.01170294       0.02418190       0.03203809      -0.01278634       0.00112680       0.03119943
H        1.03162039      -0.39276567       0.77699131       0.00019231       0.02520553      -0.05151406       0.00874917       0.00079633      -0.00112260
C        0.99687698      -0.75513456      -1.32823855      -0.01301443       0.00596272      -0.02927701       0.00384953       0.00110894      -0.00290512
H        0.54593210      -0.35194056      -2.23760085       0.07645581       0.03542323      -0.00705026       0.01368020       0.01445898      -0.00178109
H        2.07763918      -0.61232504      -1.34304800       0.02376499      -0.02156973       0.05994302       0.00591186      -0.01112170       0.00295426
H        0.78119996      -1.82546264      -1.25367263      -0.08548098      -0.02693952      -0.02475280      -0.00857248       0.00303468      -0.01336470
C        0.45263612       2.06514582       1.23171792       0.02594641      -0.01907427       0.00595285       0.00221843      -0.00152385      -0.00168445
H       -0.53932593       1.80652581       1.61300662       0.02437685      -0.00290309       0.01555462       0.00319068      -0.00077416       0.00189324
H        1.24808232       1.65124353       1.85748021       0.01427914       0.01302438      -0.01513124       0.00519120      -0.00281732      -0.00591999
H        0.54206064       3.16010576       1.21078258      -0.00319374       0.00301442      -0.01673257       0.00217711      -0.00166285      -0.00385573
N       -0.13658984       2.02600368      -1.24065412      -0.06212293      -0.06582387       0.00442519      -0.01557451      -0.00965991       0.00212175
H       -0.14568462       3.03700767      -1.15129305       0.01222859       0.06480429       0.00896042       0.01663697      -0.00791624      -0.02879677
H       -1.08853709       1.70876862      -1.08934853       0.04187015       0.02020781      -0.01946691      -0.02064307       0.02201447       0.03396686
17
Properties=species:S:1:pos:R:3:mp2_forces:R:3:forces:R:3 R1=CH3 R2=H R3=CH3 R4=NH2 lg=F nu=F rxn-id=1902 mp2_energy=-11210.567431815902 energy=-11210.627229857797 free_energy=-11210.567419475838 pbc="F F F"
C        0.47949643      -0.04260295      -0.09603080      -0.01664788      -0.01436019       0.01677675       0.00084378      -0.00142609      -0.00059175
C        0.66334062       1.46244707      -0.14955832      -0.02848134       0.02157192      -0.02550877      -0.00188951      -0.00127432      -0.00191985
H        1.72445896       1.58632309      -0.37072199      -0.02480368       0.01222210       0.00280797      -0.00323214       0.00191734      -0.00645244
F       -0.92604214      -0.31440891       0.01648602       0.00292780      -0.07494764       0.04297473       0.00129412      -0.00264476       0.00228328
F        2.96175413       0.32980435       0.83522351       0.01170294       0.02418190       0.03203809      -0.00021318       0.01995326       0.01952813
H        0.97691038      -0.40768364       0.79705104       0.00019231       0.02520553      -0.05151406       0.00331177       0.00002187      -0.00129756
C        1.03074160      -0.75416558      -1.30263516      -0.01301443       0.00596272      -0.02927701      -0.00005570      -0.00031313      -0.00162698
H        0.60425841      -0.35541781      -2.22550641       0.07645581       0.03542323      -0.00705026       0.01829086       0.01925656      -0.00389396
H        2.10737789      -0.58470046      -1.25580564       0.02376499      -0.02156973       0.05994302       0.00415820      -0.01962870       0.01286626
H        0.83524076      -1.82889973      -1.23755124      -0.08548098      -0.02693952      -0.02475280      -0.02363900       0.00134665      -0.01481903
C        0.43913078       2.06023654       1.23487203       0.02594641      -0.01907427       0.00595285       0.00277681      -0.00201259      -0.00074089
H       -0.54891825       1.79773005       1.62608562       0.02437685      -0.00290309       0.01555462       0.00450897      -0.00381649       0.00285346
H        1.23439228       1.65833222       1.86745665       0.01427914       0.01302438      -0.01513124       0.00732652      -0.00209729      -0.00605838
H        0.52194603       3.15525990       1.20898284      -0.00319374       0.00301442      -0.01673257       0.00096995      -0.00190667      -0.00062925
N       -0.17424833       2.01517115      -1.22596812      -0.06212293      -0.06582387       0.00442519      -0.00794436      -0.00572048       0.00076611
H       -0.06222562       3.02219017      -1.23435651       0.01222859       0.06480429       0.00896042       0.00155358      -0.00676982      -0.01321671
H       -1.14165474       1.82231801      -0.98819811       0.04187015       0.02020781      -0.01946691      -0.00806067       0.00511466       0.01294956
17
Properties=species:S:1:pos:R:3:mp2_forces:R:3:forces:R:3 R1=CH3 R2=H R3=CH3 R4=NH2 lg=F nu=F rxn-id=1902 mp2_energy=-11210.567431815902 energy=-11210.60055398251 free_energy=-11210.567419475838 pbc="F F F"
C        0.48041909      -0.02751608      -0.10248808      -0.01664788      -0.01436019       0.01677675      -0.00554780      -0.00787585      -0.00033871
C        0.68156620       1.47636831      -0.14387354      -0.02848134       0.02157192      -0.02550877      -0.01257468      -0.00859354      -0.00490287
H        1.74506799       1.59989070      -0.35581434      -0.02480368       0.01222210       0.00280797      -0.01066290      -0.02084824      -0.00288613
F       -0.93425570      -0.27793552      -0.02294480       0.00292780      -0.07494764       0.04297473      -0.00053456      -0.02157892       0.02885528
F        2.94386872       0.24546390       0.80673501       0.01170294       0.02418190       0.03203809       0.02519599       0.05041701       0.03370781
H        0.94908844      -0.40638181       0.79936054       0.00019231       0.02520553      -0.05151406       0.02841871       0.00337491      -0.01102550
C        1.03250860      -0.75295554      -1.30139363      -0.01301443       0.00596272      -0.02927701      -0.00800121       0.00011752      -0.00399984
H        0.51449889      -0.45621524      -2.21551984       0.07645581       0.03542323      -0.00705026       0.03509006       0.04264427      -0.01997271
H        2.09036503      -0.49680846      -1.33698752       0.02376499      -0.02156973       0.05994302       0.00628339      -0.02895266       0.04557877
H        0.94623799      -1.83493074      -1.16146579      -0.08548098      -0.02693952      -0.02475280      -0.05296298      -0.00336601      -0.03196909
C        0.43985379       2.06990128       1.23977053       0.02594641      -0.01907427       0.00595285      -0.00084519      -0.00620034      -0.00367933
H       -0.56155318       1.82327624       1.60491750       0.02437685      -0.00290309       0.01555462       0.00214687      -0.00323487       0.00851369
H        1.20832520       1.65140612       1.89426253       0.01427914       0.01302438      -0.01513124       0.00869423      -0.00649547      -0.01480814
H        0.54388917       3.16388389       1.22598923      -0.00319374       0.00301442      -0.01673257       0.00155013      -0.00649909      -0.00770224
N       -0.14863011       2.02980734      -1.22462810      -0.06212293      -0.06582387       0.00442519      -0.01063951      -0.00294260      -0.00384256
H       -0.09681306       3.04203286      -1.18508768       0.01222859       0.06480429       0.00896042       0.01182297      -0.00174915      -0.01597413
H       -1.10847786       1.77264620      -1.02100658       0.04187015       0.02020781      -0.01946691      -0.01743353       0.02178302       0.00444570
17
Properties=species:S:1:pos:R:3:mp2_forces:R:3:forces:R:3 R1=CH3 R2=H R3=CH3 R4=NH2 lg=F nu=F rxn-id=1902 mp2_energy=-11210.567431815902 energy=-11210.50084286895 free_energy=-11210.567419475838 pbc="F F F"
C        0.50382046       0.00228170      -0.10195287      -0.01664788      -0.01436019       0.01677675      -0.10440420      -0.00965864      -0.03233450
C        0.72772259       1.50772188      -0.12980746      -0.02848134       0.02157192      -0.02550877      -0.05229811      -0.02619196      -0.01368971
H        1.78400192       1.67669653      -0.35345090      -0.02480368       0.01222210       0.00280797      -0.02508334      -0.13394269       0.01998725
F       -0.93355053      -0.19398694      -0.12181427       0.00292780      -0.07494764       0.04297473      -0.03501812      -0.04947170       0.06085633
F        2.86757350       0.08650296       0.71232886       0.01170294       0.02418190       0.03203809       0.17150591       0.06476670       0.09886918
H        0.85200710      -0.41523246       0.83666003       0.00019231       0.02520553      -0.05151406       0.13354962       0.03791283      -0.06469900
C        1.05575266      -0.75315855      -1.28802961      -0.01301443       0.00596272      -0.02927701      -0.04299121       0.00632069      -0.01550297
H        0.41479061      -0.57430108      -2.15468648       0.07645581       0.03542323      -0.00705026       0.05429252       0.01203519      -0.08787741
H        2.07583239      -0.42891708      -1.47591880       0.02376499      -0.02156973       0.05994302      -0.01569529       0.02265009       0.13707157
H        1.08408820      -1.82335834      -1.06540736      -0.08548098      -0.02693952      -0.02475280      -0.05206452       0.00312327      -0.02270962
C        0.44654722       2.09011633       1.25137189       0.02594641      -0.01907427       0.00595285      -0.00933098      -0.01325058      -0.00888479
H       -0.55797107       1.81329310       1.58140747       0.02437685      -0.00290309       0.01555462      -0.00730919       0.01878720       0.02985935
H        1.19481053       1.68529592       1.93819023       0.01427914       0.01302438      -0.01513124       0.00972442      -0.02525283      -0.03513317
H        0.52190509       3.18634139       1.25121492      -0.00319374       0.00301442      -0.01673257       0.01747746      -0.01290941      -0.01518279
N       -0.11313602       2.03654487      -1.21352452      -0.06212293      -0.06582387       0.00442519      -0.01752507       0.01730881      -0.01354881
H       -0.15203323       3.04585152      -1.12720313       0.01222859       0.06480429       0.00896042       0.01808238       0.02034708      -0.01499862
H       -1.04620221       1.68024174      -1.03955257       0.04187015       0.02020781      -0.01946691      -0.04291227       0.06742594      -0.02208228
17
Properties=species:S:1:pos:R:3:mp2_forces:R:3:forces:R:3 R1=CH3 R2=H R3=CH3 R4=NH2 lg=F nu=F rxn-id=1902 mp2_energy=-11210.567431815902 energy=-11210.30777496296 free_energy=-11210.567419475838 pbc="F F F"
C        0.57834575       0.01179123      -0.07966372      -0.01664788      -0.01436019       0.01677675      -1.10973574      -0.05514306      -0.22723877
C        0.76589275       1.52659156      -0.12054957      -0.02848134       0.02157192      -0.02550877      -0.06695024      -0.03709954       0.00159892
H        1.80241931       1.76971973      -0.36846884      -0.02480368       0.01222210       0.00280797      -0.01841773      -0.18552507       0.03234734
F       -0.90785326      -0.15765568      -0.16591407       0.00292780      -0.07494764       0.04297473       0.40879841      -0.02702287       0.04626465
F        2.74489263       0.04463114       0.63201021       0.01170294       0.02418190       0.03203809       0.55604445       0.02918007       0.24095800
H        0.75292371      -0.44216619       0.88367203       0.00019231       0.02520553      -0.05151406       0.33910231       0.06882538      -0.04374322
C        1.08876556      -0.75834081      -1.27647898      -0.01301443       0.00596272      -0.02927701      -0.07061481       0.00060949      -0.00728608
H        0.38536455      -0.57509207      -2.09419613       0.07645581       0.03542323      -0.00705026       0.05556810      -0.04399811      -0.14914920
H        2.09294856      -0.45284982      -1.56482735       0.02376499      -0.02156973       0.05994302      -0.03806064       0.06179467       0.18302027
H        1.11110477      -1.82578870      -1.04869357      -0.08548098      -0.02693952      -0.02475280      -0.01323044       0.00392583       0.00060739
C        0.45338877       2.09884810       1.25726773       0.02594641      -0.01907427       0.00595285      -0.00565136      -0.00383907      -0.00160981
H       -0.55221153       1.79752176       1.56024098       0.02437685      -0.00290309       0.01555462      -0.00621190       0.03384306       0.04366975
H        1.18878058       1.70370034       1.96265941       0.01427914       0.01302438      -0.01513124       0.01430691      -0.02848033      -0.03878401
H        0.50813937       3.19512636       1.26184093      -0.00319374       0.00301442      -0.01673257       0.01264714      -0.00319268      -0.00462027
N       -0.10251309       2.02376012      -1.20224952      -0.06212293      -0.06582387       0.00442519      -0.01295458       0.03126467      -0.00972821
H       -0.16762698       3.03106215      -1.11861642       0.01222859       0.06480429       0.00896042       0.00974374       0.02274906      -0.00824389
H       -1.01680223       1.63107425      -1.01820770       0.04187015       0.02020781      -0.01946691      -0.05438363       0.13210850      -0.05806287
17
Properties=species:S:1:pos:R:3:mp2_forces:R:3:forces:R:3 R1=CH3 R2=H R3=CH3 R4=NH2 lg=F nu=F rxn-id=1902 mp2_energy=-11210.567431815902 energy=-11209.791965010765 free_energy=-11210.567419475838 pbc="F F F"
C        0.91567007       0.02807617      -0.00981386      -0.01664788      -0.01436019       0.01677675       0.97290998       0.04742426       0.20923621
C        0.78588343       1.53885190      -0.12147030      -0.02848134       0.02157192      -0.02550877       0.08414509       0.02446609       0.00123161
H        1.80898213       1.82608588      -0.37846327      -0.02480368       0.01222210       0.00280797       0.02816299       0.18851284      -0.03687379
F       -1.03250650      -0.15099018      -0.18105239       0.00292780      -0.07494764       0.04297473      -0.46314141       0.02605545      -0.03736590
F        2.57690615       0.03662702       0.55846982       0.01170294       0.02418190       0.03203809      -0.49552783      -0.02736560      -0.21089407
H        0.65018319      -0.46161003       0.89680755       0.00019231       0.02520553      -0.05151406      -0.28912272      -0.02412014      -0.02308555
C        1.11039002      -0.75829745      -1.27434024      -0.01301443       0.00596272      -0.02927701       0.08723839       0.00515082       0.02785141