15
Properties=species:S:1:pos:R:3:mp2_forces:R:3:forces:R:3 R1=CN R2=H R3=CH3 R4=NO2 lg=Cl nu=Cl rxn-id=1300 mp2_energy=-36296.982485994035 energy=-36296.98248395324 free_energy=-36296.98248395324 pbc="F F F"
C        0.45755594      -0.04199224      -0.11173330       0.03755082      -0.00651365       0.00488505       0.03758206      -0.00650638       0.00490180
C        0.81194401       1.44488803      -0.09403841      -0.01340405      -0.01032749      -0.00522535      -0.01337378      -0.01035726      -0.00526453
H        1.88052392       1.49772373      -0.31940194      -0.02978478      -0.03577210      -0.00668125      -0.02980254      -0.03577556      -0.00667533
Cl      -1.32783149      -0.29242171      -0.00332351       0.04843378       0.04092836      -0.01272852       0.04842496       0.04091812      -0.01273686
Cl       3.37667406      -0.09466906       1.11454588      -0.00912936       0.03248932       0.08665307      -0.00912872       0.03248897       0.08665482
H        0.90869951      -0.46681333       0.78526198       0.04890866      -0.03043202      -0.00662234       0.04890207      -0.03042450      -0.00664296
C        0.96558913      -0.78262247      -1.26104829      -0.03753417      -0.02329568      -0.02780549      -0.03754016      -0.02324662      -0.02775328
N        1.33143117      -1.44348144      -2.16013650      -0.03664978       0.02932211      -0.00830382      -0.03665474       0.02927620      -0.00834259
C        0.52855557       2.08892831       1.24201055       0.00423491       0.00080106      -0.00713516       0.00422394       0.00081809      -0.00713220
H       -0.50623697       1.93943594       1.55079979       0.00604680       0.01453838      -0.00534995       0.00605947       0.01453992      -0.00535270
H        1.21541699       1.63782865       1.95947051       0.00052048      -0.00433049      -0.00691384       0.00051728      -0.00432999      -0.00692063
H        0.72146382       3.16032883       1.18887523       0.01840592       0.00275912       0.02744538       0.01840409       0.00274557       0.02744827
N        0.10225489       2.14404218      -1.21921449      -0.01026473      -0.01067988      -0.01025147      -0.01038650      -0.01053138      -0.01007684
O       -0.70764251       3.03056553      -0.95058100      -0.01420559      -0.01578349      -0.00351119      -0.01413057      -0.01586978      -0.00355963
O        0.38966196       1.77648364      -2.35701233      -0.01312889       0.01629646      -0.01845511      -0.01309686       0.01625461      -0.01854733
15
Properties=species:S:1:pos:R:3:mp2_forces:R:3:forces:R:3 R1=CN R2=H R3=CH3 R4=NO2 lg=Cl nu=Cl rxn-id=1300 mp2_energy=-36296.982485994035 energy=-36296.98670958495 free_energy=-36296.98248395324 pbc="F F F"
C        0.46010754      -0.03787355      -0.12146048       0.03755082      -0.00651365       0.00488505       0.00376259      -0.00695569      -0.00583715
C        0.81619721       1.44797556      -0.10330478      -0.01340405      -0.01032749      -0.00522535       0.00054244      -0.00652817      -0.00495968
H        1.87901901       1.50171911      -0.35524981      -0.02978478      -0.03577210      -0.00668125       0.00038292      -0.00469670      -0.00489002
Cl      -1.32900695      -0.26611756      -0.05930915       0.04843378       0.04092836      -0.01272852       0.00869306      -0.01173534       0.02774436
Cl       3.32359424      -0.13425850       1.21661150      -0.00912936       0.03248932       0.08665307      -0.00689377       0.04154079       0.07192395
H        0.89443295      -0.46799844       0.78298327       0.04890866      -0.03043202      -0.00662234       0.02990201      -0.00846317      -0.01509422
C        0.98329114      -0.77537839      -1.26544059      -0.03753417      -0.02329568      -0.02780549      -0.01890223       0.00069672      -0.02027144
N        1.37399338      -1.42323247      -2.16296181      -0.03664978       0.02932211      -0.00830382      -0.02641851       0.00410524      -0.02895457
C        0.55853966       2.09441469       1.23820589       0.00423491       0.00080106      -0.00713516       0.00188314      -0.00516623      -0.00493429
H       -0.46445802       1.92598846       1.57441027       0.00604680       0.01453838      -0.00534995      -0.00416247       0.01892342      -0.01253046
H        1.27183202       1.65526880       1.93707219       0.00052048      -0.00433049      -0.00691384      -0.01216669      -0.01966750      -0.00072328
H        0.72908511       3.16965586       1.18121181       0.01840592       0.00275912       0.02744538       0.02728357      -0.00851896      -0.00252504
N        0.06921987       2.13610566      -1.21404552      -0.01026473      -0.01067988      -0.01025147      -0.00184391      -0.00075725      -0.00075533
O       -0.73889097       3.01778530      -0.92866541      -0.01420559      -0.01578349      -0.00351119       0.00119343       0.00011221       0.00538240
O        0.32110382       1.75417007      -2.35558322      -0.01312889       0.01629646      -0.01845511      -0.00325557       0.00711062      -0.00357523
15
Properties=species:S:1:pos:R:3:mp2_forces:R:3:forces:R:3 R1=CN R2=H R3=CH3 R4=NO2 lg=Cl nu=Cl rxn-id=1300 mp2_energy=-36296.982485994035 energy=-36296.98022689845 free_energy=-36296.98248395324 pbc="F F F"
C        0.45628779      -0.03604323      -0.11902330       0.03755082      -0.00651365       0.00488505       0.00415905      -0.01035413      -0.00682316
C        0.81715699       1.44903704      -0.10000819      -0.01340405      -0.01032749      -0.00522535      -0.00314713      -0.00705806      -0.00597996
H        1.88012917       1.50198125      -0.35017602      -0.02978478      -0.03577210      -0.00668125      -0.00172800      -0.01036823      -0.00439822
Cl      -1.33544342      -0.25508659      -0.07877543       0.04843378       0.04092836      -0.01272852       0.00925389      -0.01463275       0.02837605
Cl       3.33662280      -0.12989478       1.17075910      -0.00912936       0.03248932       0.08665307      -0.00662251       0.04347418       0.07603041
H        0.87350921      -0.46763975       0.79198016       0.04890866      -0.03043202      -0.00662234       0.03728951      -0.00716588      -0.01530429
C        0.99066696      -0.77916077      -1.25457381      -0.03753417      -0.02329568      -0.02780549      -0.02414759       0.00343362      -0.01589872
N        1.38442357      -1.43170793      -2.14718693      -0.03664978       0.02932211      -0.00830382      -0.02586735       0.00468158      -0.03097872
C        0.55660006       2.09393960       1.24167429       0.00423491       0.00080106      -0.00713516       0.00029395      -0.00659530      -0.00634401
H       -0.46666018       1.92135387       1.57552400       0.00604680       0.01453838      -0.00534995      -0.00199876       0.02209275      -0.00814438
H        1.27023480       1.65609202       1.94126394       0.00052048      -0.00433049      -0.00691384      -0.01388907      -0.02031241      -0.00369666
H        0.72400737       3.16983852       1.18727617       0.01840592       0.00275912       0.02744538       0.02692624      -0.01088406      -0.00547480
N        0.07220662       2.13644312      -1.21230176      -0.01026473      -0.01067988      -0.01025147      -0.00265881      -0.00075129      -0.00025549
O       -0.73512780       3.01964256      -0.92967480      -0.01420559      -0.01578349      -0.00351119       0.00442246       0.00263009       0.00446325
O        0.32344606       1.74942966      -2.35228324      -0.01312889       0.01629646      -0.01845511      -0.00228588       0.01180990      -0.00557130
15
Properties=species:S:1:pos:R:3:mp2_forces:R:3:forces:R:3 R1=CN R2=H R3=CH3 R4=NO2 lg=Cl nu=Cl rxn-id=1300 mp2_energy=-36296.982485994035 energy=-36296.978837716626 free_energy=-36296.98248395324 pbc="F F F"
C        0.45792379      -0.03581467      -0.11686800       0.03755082      -0.00651365       0.00488505       0.00624555      -0.01113963      -0.01196122
C        0.81813745       1.44943113      -0.09887665      -0.01340405      -0.01032749      -0.00522535      -0.00586324      -0.00638256      -0.00648132
H        1.88088293       1.50389623      -0.34878037      -0.02978478      -0.03577210      -0.00668125      -0.00164158      -0.01270009      -0.00266489
Cl      -1.33422429      -0.25213955      -0.08195495       0.04843378       0.04092836      -0.01272852       0.00621221      -0.01899080       0.03255177
Cl       3.33547364      -0.13008310       1.15771514      -0.00912936       0.03248932       0.08665307       0.00124718       0.04234866       0.08017917
H        0.87357386      -0.46736846       0.79517886       0.04890866      -0.03043202      -0.00662234       0.03070542      -0.00563005      -0.02070101
C        0.99295564      -0.77990526      -1.25175555      -0.03753417      -0.02329568      -0.02780549      -0.02903756       0.00702570      -0.01243469
N        1.38271243      -1.43312447      -2.14547915      -0.03664978       0.02932211      -0.00830382      -0.02145945       0.00262718      -0.03219301
C        0.55508543       2.09399644       1.24251231       0.00423491       0.00080106      -0.00713516       0.00077389      -0.00579006      -0.00647188
H       -0.46901971       1.92192748       1.57441194       0.00604680       0.01453838      -0.00534995      -0.00089264       0.02208159      -0.00868940
H        1.26682525       1.65536913       1.94339201       0.00052048      -0.00433049      -0.00691384      -0.01275511      -0.01945933      -0.00342746
H        0.72329167       3.16982034       1.18908015       0.01840592       0.00275912       0.02744538       0.02716387      -0.01065131      -0.00560664
N        0.07324264       2.13551570      -1.21203341      -0.01026473      -0.01067988      -0.01025147      -0.00188073       0.00137267      -0.00022393
O       -0.73420473       3.01891161      -0.93051105      -0.01420559      -0.01578349      -0.00351119       0.00398561       0.00290532       0.00408916
O        0.32540402       1.74779204      -2.35155708      -0.01312889       0.01629646      -0.01845511      -0.00280340       0.01238272      -0.00596464
15
Properties=species:S:1:pos:R:3:mp2_forces:R:3:forces:R:3 R1=CN R2=H R3=CH3 R4=NO2 lg=Cl nu=Cl rxn-id=1300 mp2_energy=-36296.982485994035 energy=-36296.95616940816 free_energy=-36296.98248395324 pbc="F F F"
C        0.46799891      -0.02852768      -0.10329266       0.03755082      -0.00651365       0.00488505      -0.01212586      -0.00891427      -0.02359948
C        0.82926699       1.45814258      -0.08760222      -0.01340405      -0.01032749      -0.00522535      -0.02581204      -0.01060380      -0.01136143
H        1.89093245       1.53034333      -0.33599131      -0.02978478      -0.03577210      -0.00668125      -0.01584542      -0.06088556       0.00858820
Cl      -1.32957482      -0.22242681      -0.12035411       0.04843378       0.04092836      -0.01272852      -0.00829213      -0.03919731       0.04770201
Cl       3.33815250      -0.14440663       1.02697225      -0.00912936       0.03248932       0.08665307       0.05084051       0.04009632       0.10855756
H        0.84623849      -0.46271347       0.82300650       0.04890866      -0.03043202      -0.00662234       0.03679958       0.00288393      -0.04251102
C        1.01711549      -0.78467906      -1.22359321      -0.03753417      -0.02329568      -0.02780549      -0.04360595       0.00717969      -0.00886533
N        1.38059983      -1.45110626      -2.11852851      -0.03664978       0.02932211      -0.00830382       0.00057812       0.00534338      -0.02720747
C        0.54491847       2.09610369       1.25253403       0.00423491       0.00080106      -0.00713516      -0.00276225      -0.00374131      -0.01061248
H       -0.48392974       1.91641376       1.56553664       0.00604680       0.01453838      -0.00534995      -0.00010127       0.02987082       0.00334155
H        1.24472684       1.65708181       1.96501664       0.00052048      -0.00433049      -0.00691384      -0.00567008      -0.02074143      -0.01585205
H        0.70879272       3.17304021       1.21004479       0.01840592       0.00275912       0.02744538       0.02882099      -0.00975050      -0.01375080
N        0.08323064       2.12791630      -1.20867903      -0.01026473      -0.01067988      -0.01025147      -0.00355256       0.01412042      -0.00197295
O       -0.72878247       3.00927599      -0.93840220      -0.01420559      -0.01578349      -0.00351119       0.00372805       0.02010640      -0.00138699
O        0.33837371       1.72376682      -2.34219342      -0.01312889       0.01629646      -0.01845511      -0.00299968       0.03423322      -0.01106932
15
Properties=species:S:1:pos:R:3:mp2_forces:R:3:forces:R:3 R1=CN R2=H R3=CH3 R4=NO2 lg=Cl nu=Cl rxn-id=1300 mp2_energy=-36296.982485994035 energy=-36296.91422762317 free_energy=-36296.98248395324 pbc="F F F"
C        0.48375573      -0.02250746      -0.09377814       0.03755082      -0.00651365       0.00488505      -0.05350012      -0.00085657      -0.02627502
C        0.84853882       1.46900829      -0.08033186      -0.01340405      -0.01032749      -0.00522535      -0.06868943      -0.01582341      -0.01376963
H        1.90568137       1.58389860      -0.34038689      -0.02978478      -0.03577210      -0.00668125      -0.05080313      -0.17274629       0.02587271
Cl      -1.32180531      -0.19847512      -0.16402319       0.04843378       0.04092836      -0.01272852       0.01171537      -0.04550018       0.03946845
Cl       3.29251957      -0.17675843       0.93242794      -0.00912936       0.03248932       0.08665307       0.15273762       0.02402906       0.14343675
H        0.80559911      -0.46253269       0.85055357       0.04890866      -0.03043202      -0.00662234       0.07922054       0.03778744      -0.06541406
C        1.05817418      -0.79107189      -1.19386803      -0.03753417      -0.02329568      -0.02780549      -0.10127616       0.02609266      -0.01195320
N        1.37913693      -1.46334447      -2.10124937      -0.03664978       0.02932211      -0.00830382       0.04022914       0.00813917      -0.00491432
C        0.54831511       2.09976172       1.25965588       0.00423491       0.00080106      -0.00713516      -0.01552536      -0.00474544      -0.00918871
H       -0.47817316       1.89313551       1.56064145       0.00604680       0.01453838      -0.00534995      -0.01269210       0.04480634       0.02814987
H        1.24863817       1.67562308       1.98052165       0.00052048      -0.00433049      -0.00691384       0.00005639      -0.02977893      -0.03762221
H        0.68534715       3.18088500       1.22169019       0.01840592       0.00275912       0.02744538       0.03176723      -0.01172396      -0.02053351
N        0.08617737       2.11710586      -1.20065313      -0.01026473      -0.01067988      -0.01025147      -0.00718617       0.04438010      -0.01944896
O       -0.72997210       2.99501107      -0.93610528      -0.01420559      -0.01578349      -0.00351119      -0.00370101       0.04032244      -0.00647402
O        0.33612706       1.69848553      -2.33062062      -0.01312889       0.01629646      -0.01845511      -0.00235281       0.05561756      -0.02133414
15
Properties=species:S:1:pos:R:3:mp2_forces:R:3:forces:R:3 R1=CN R2=H R3=CH3 R4=NO2 lg=Cl nu=Cl rxn-id=1300 mp2_energy=-36296.982485994035 energy=-36296.816362330064 free_energy=-36296.98248395324 pbc="F F F"
C        0.51786327      -0.02174057      -0.08169289       0.03755082      -0.00651365       0.00488505      -0.39670571      -0.00148061      -0.07774161
C        0.87912066       1.47977619      -0.07215622      -0.01340405      -0.01032749      -0.00522535      -0.14927287      -0.04453863      -0.02656071
H        1.92174060       1.67322392      -0.35164937      -0.02978478      -0.03577210      -0.00668125      -0.05363698      -0.34224169       0.04636381
Cl      -1.31518225      -0.17536176      -0.18729175       0.04843378       0.04092836      -0.01272852       0.18146024      -0.03769533       0.00186702
Cl       3.21120062      -0.18842466       0.85343721      -0.00912936       0.03248932       0.08665307       0.37055548      -0.01822670       0.20860666
H        0.76100529      -0.48169123       0.87602564       0.04890866      -0.03043202      -0.00662234       0.19124329       0.12067020      -0.09535478
C        1.09935055      -0.80055410      -1.17210052      -0.03753417      -0.02329568      -0.02780549      -0.14302035       0.04684831      -0.02277106
N        1.36322628      -1.47419643      -2.09963383      -0.03664978       0.02932211      -0.00830382       0.06843813       0.03446740       0.05931955
C        0.55552345       2.10119539       1.26595114       0.00423491       0.00080106      -0.00713516      -0.02685550      -0.00723217      -0.01138245
H       -0.47126917       1.86991609       1.54388513       0.00604680       0.01453838      -0.00534995      -0.02098297       0.06620152       0.06828249
H        1.25014342       1.69054279       2.00011050       0.00052048      -0.00433049      -0.00691384       0.00024565      -0.03859487      -0.05961160
H        0.67102815       3.18488481       1.23052177       0.01840592       0.00275912       0.02744538       0.02460050      -0.00872450      -0.01552547
N        0.09017615       2.09770568      -1.19318348      -0.01026473      -0.01067988      -0.01025147       0.00183559       0.09316427      -0.02500558
O       -0.72467842       2.97332897      -0.92753354      -0.01420559      -0.01578349      -0.00351119      -0.03263726       0.06311900      -0.02846602
O        0.33881139       1.66961951      -2.32021562      -0.01312889       0.01629646      -0.01845511      -0.01526723       0.07426381      -0.02202025
15
Properties=species:S:1:pos:R:3:mp2_forces:R:3:forces:R:3 R1=CN R2=H R3=CH3 R4=NO2 lg=Cl nu=Cl rxn-id=1300 mp2_energy=-36296.982485994035 energy=-36296.53345147523 free_energy=-36296.98248395324 pbc="F F F"
C        0.61491135      -0.02186593      -0.06342847       0.03755082      -0.00651365       0.00488505      -1.86078083      -0.05977851      -0.29682763
C        0.91700318       1.48918331      -0.06491575      -0.01340405      -0.01032749      -0.00522535      -0.19073682      -0.09692738      -0.02126689
H        1.93809883       1.75474208      -0.36257161      -0.02978478      -0.03577210      -0.00668125      -0.01571101      -0.36148181       0.04683980
Cl      -1.35889911      -0.16830411      -0.18918316       0.04843378       0.04092836      -0.01272852       0.96975427       0.04727590      -0.01674907
Cl       3.12865031      -0.18419722       0.80316558      -0.00912936       0.03248932       0.08665307       0.58964246      -0.05507171       0.26000260
H        0.70883022      -0.50766919       0.90279114       0.04890866      -0.03043202      -0.00662234       0.48171003       0.15479669      -0.10521398
C        1.13437468      -0.81169019      -1.17189953      -0.03753417      -0.02329568      -0.02780549      -0.03917757       0.08447372       0.09863270
N        1.34552378      -1.48660443      -2.11379262      -0.03664978       0.02932211      -0.00830382       0.07387733       0.04184539       0.08286160
C        0.56224691       2.10330791       1.26848703       0.00423491       0.00080106      -0.00713516      -0.01333326      -0.01112564      -0.00498472
H       -0.46655713       1.85446524       1.52827717       0.00604680       0.01453838      -0.00534995      -0.00948041       0.07022739       0.06763593
H        1.24840489       1.69934952       2.01388278       0.00052048      -0.00433049      -0.00691384       0.00656796      -0.03079936      -0.05317945
H        0.66411064       3.18875071       1.23628543       0.01840592       0.00275912       0.02744538       0.01704296      -0.01189191      -0.01092294
N        0.08945664       2.07593984      -1.18594984      -0.01026473      -0.01067988      -0.01025147       0.04387967       0.13437776      -0.01654818
O       -0.71847360       2.95909417      -0.92336422      -0.01420559      -0.01578349      -0.00351119      -0.03965991       0.04905874      -0.01492219
O        0.34037842       1.65372287      -2.31330975      -0.01312889       0.01629646      -0.01845511      -0.01359487       0.04502072      -0.01535759
15
Properties=species:S:1:pos:R:3:mp2_forces:R:3:forces:R:3 R1=CN R2=H R3=CH3 R4=NO2 lg=Cl nu=Cl rxn-id=1300 mp2_energy=-36296.982485994035 energy=-36296.30281763148 free_energy=-36296.98248395324 pbc="F F F"
C        0.69112499      -0.01961388      -0.05123934       0.03755082      -0.00651365       0.00488505      -1.95052755      -0.03202359      -0.34684035
C        0.92469705       1.49295029      -0.06400401      -0.01340405      -0.01032749      -0.00522535      -0.09624794      -0.07810868      -0.00215818
H        1.93860862       1.76961197      -0.36440207      -0.02978478      -0.03577210      -0.00668125       0.01596395      -0.25748180       0.03241117
Cl      -1.39842459      -0.17038643      -0.18922002       0.04843378       0.04092836      -0.01272852       0.83866383       0.04875737      -0.01673438
Cl       3.10433503      -0.18203511       0.79204190      -0.00912936       0.03248932       0.08665307       0.51649533      -0.04742866       0.21860704
H        0.68963203      -0.51379103       0.90713433       0.04890866      -0.03043202      -0.00662234       0.51852771       0.09457781      -0.01063270
C        1.13552855      -0.81467137      -1.17467237      -0.03753417      -0.02329568      -0.02780549       0.09120264       0.04965789       0.08707416
N        1.34270384      -1.48919532      -2.11770366      -0.03664978       0.02932211      -0.00830382       0.05555289       0.02017957       0.05597502
C        0.56279191       2.10370314       1.26873211       0.00423491       0.00080106      -0.00713516      -0.00348436      -0.00310344      -0.00100354
H       -0.46611930       1.85169649       1.52573331       0.00604680       0.01453838      -0.00534995      -0.00616655       0.05585638       0.05179327
H        1.24807712       1.70066438       2.01586084       0.00052048      -0.00433049      -0.00691384       0.00704579      -0.02239493      -0.03944161
H        0.66335010       3.18929894       1.23689498       0.01840592       0.00275912       0.02744538       0.01222470      -0.00531980      -0.00600344
N        0.08761767       2.07060226      -1.18527971      -0.01026473      -0.01067988      -0.01025147       0.04212193       0.10502943      -0.00412092
O       -0.71676554       2.95722697      -0.92285789      -0.01420559      -0.01578349      -0.00351119      -0.03034864       0.03806488      -0.00965847
O        0.34090253       1.65216329      -2.31254422      -0.01312889       0.01629646      -0.01845511      -0.01102372       0.03373759      -0.00926708
15
Properties=species:S:1:pos:R:3:mp2_forces:R:3:forces:R:3 R1=CN R2=H R3=CH3 R4=NO2 lg=Cl nu=Cl rxn-id=1300 mp2_energy=-36296.982485994035 energy=-36296.14258860921 free_energy=-36296.98248395324 pbc="F F F"
C        0.75802991      -0.01858709      -0.03930221       0.03755082      -0.00651365       0.00488505      -1.44208803       0.00309873      -0.29084050
C        0.92800333       1.49547158      -0.06386932      -0.01340405      -0.01032749      -0.00522535      -0.03411118      -0.04175216       0.00543540
H        1.93797300       1.77859932      -0.36548176      -0.02978478      -0.03577210      -0.00668125       0.02289945      -0.16502071       0.02203370
Cl      -1.42709857      -0.17218835      -0.18925888       0.04843378       0.04092836      -0.01272852       0.50018512       0.02963357      -0.02251965
Cl       3.08645780      -0.18044011       0.78409979      -0.00912936       0.03248932       0.08665307       0.36996494      -0.03177221       0.15164700
H        0.67218893      -0.51688677       0.90763384       0.04890866      -0.03043202      -0.00662234       0.41354812       0.04079725       0.04637637
C        1.13217691      -0.81634072      -1.17720245      -0.03753417      -0.02329568      -0.02780549       0.11831509       0.02314033       0.06623745
N        1.34084222      -1.49033108      -2.11958603      -0.03664978       0.02932211      -0.00830382       0.04006877      -0.00405125       0.02324264
C        0.56293593       2.10376866       1.26879279       0.00423491       0.00080106      -0.00713516       0.00008338       0.00047217       0.00096332
H       -0.46587758       1.84983020       1.52409722       0.00604680       0.01453838      -0.00534995      -0.00366254       0.03778873       0.03484178
H        1.24778660       1.70147311       2.01713253       0.00052048      -0.00433049      -0.00691384       0.00590727      -0.01511317      -0.02681253
H        0.66287679       3.18954299       1.23723953       0.01840592       0.00275912       0.02744538       0.00810168      -0.00109156      -0.00231634
N        0.08616789       2.06713446      -1.18514982      -0.01026473      -0.01067988      -0.01025147       0.02986930       0.07189827       0.00100150
O       -0.71566402       2.95599931      -0.92254573      -0.01420559      -0.01578349      -0.00351119      -0.02041648       0.02714224      -0.00563015
O        0.34126085       1.65117908      -2.31212532      -0.01312889       0.01629646      -0.01845511      -0.00866490       0.02482976      -0.00365998
15
Properties=species:S:1:pos:R:3:mp2_forces:R:3:forces:R:3 R1=CN R2=H R3=CH3 R4=NO2 lg=Cl nu=Cl rxn-id=1300 mp2_energy=-36296.982485994035 energy=-36296.04116854471 free_energy=-36296.98248395324 pbc="F F F"
C        0.82592619      -0.01880949      -0.02562852       0.03755082      -0.00651365       0.00488505      -0.76021275       0.01700604      -0.17151844
C        0.92968171       1.49722961      -0.06403517      -0.01340405      -0.01032749      -0.00522535      -0.00551549      -0.01169076       0.00517157
H        1.93679697       1.78658074      -0.36648502      -0.02978478      -0.03577210      -0.00668125       0.01507460      -0.07905791       0.01230979
Cl      -1.45046640      -0.17377524      -0.18903051       0.04843378       0.04092836      -0.01272852       0.22576170       0.01254070      -0.02234696
Cl       3.06888597      -0.17897705       0.77636069      -0.00912936       0.03248932       0.08665307       0.19704133      -0.01484058       0.07426241
H        0.65302648      -0.51860203       0.90565875       0.04890866      -0.03043202      -0.00662234       0.22437318       0.00691686       0.05413863
C        1.12630838      -0.81722260      -1.17952025      -0.03753417      -0.02329568      -0.02780549       0.07630652       0.00519823       0.03843159
N        1.33900376      -1.49088441      -2.12080197      -0.03664978       0.02932211      -0.00830382       0.02185027      -0.01730233       0.00264443
C        0.56298001       2.10368687       1.26877536       0.00423491       0.00080106      -0.00713516       0.00125514       0.00076044       0.00137571
H       -0.46564910       1.84810440       1.52262453       0.00604680       0.01453838      -0.00534995      -0.00098749       0.01874755       0.01793903
H        1.24743527       1.70224038       2.01831237       0.00052048      -0.00433049      -0.00691384       0.00297044      -0.00754716      -0.01403986
H        0.66240986       3.18968692       1.23754633       0.01840592       0.00275912       0.02744538       0.00341808       0.00130990       0.00119875
N        0.08475897       2.06394230      -1.18520633      -0.01026473      -0.01067988      -0.01025147       0.01483875       0.03817810       0.00187382
O       -0.71465421       2.95481154      -0.92229061      -0.01420559      -0.01578349      -0.00351119      -0.01037739       0.01489946      -0.00219425
O        0.34161613       1.65021262      -2.31180545      -0.01312889       0.01629646      -0.01845511      -0.00579690       0.01488147       0.00075379
15
Properties=species:S:1:pos:R:3:mp2_forces:R:3:forces:R:3 R1=CN R2=H R3=CH3 R4=NO2 lg=Cl nu=Cl rxn-id=1300 mp2_energy=-36296.982485994035 energy=-36296.004819493355 free_energy=-36296.98248395324 pbc="F F F"
C        0.89666947      -0.02047161      -0.00981751       0.03755082      -0.00651365       0.00488505      -0.00564485       0.00010905      -0.00417364
C        0.93043373       1.49793320      -0.06433860      -0.01340405      -0.01032749      -0.00522535       0.00328423      -0.00377920       0.00180092
H        1.93522076       1.79433887      -0.36756979      -0.02978478      -0.03577210      -0.00668125      -0.00166588       0.00323557       0.00078326
Cl      -1.47097462      -0.17534519      -0.18857103       0.04843378       0.04092836      -0.01272852       0.00873527      -0.00442296      -0.01703925
Cl       3.05036015      -0.17762630       0.76828823      -0.00912936       0.03248932       0.08665307       0.00104608      -0.00010251      -0.01131956
H        0.63246199      -0.51884037       0.90103406       0.04890866      -0.03043202      -0.00662234       0.00173844       0.00435669       0.00442081
C        1.11865780      -0.81720304      -1.18141801      -0.03753417      -0.02329568      -0.02780549      -0.00519539       0.00614354       0.01919223
N        1.33700262      -1.49082007      -2.12138465      -0.03664978       0.02932211      -0.00830382       0.00001630      -0.01719104      -0.00441333
C        0.56298049       2.10348972       1.26869311       0.00423491       0.00080106      -0.00713516       0.00146291      -0.00143865       0.00043103
H       -0.46541805       1.84644751       1.52123451       0.00604680       0.01453838      -0.00534995       0.00180477       0.00094267       0.00255402
H        1.24699971       1.70305470       2.01950732       0.00052048      -0.00433049      -0.00691384      -0.00181405       0.00119131      -0.00080933