13
Properties=species:S:1:pos:R:3:mp2_forces:R:3:forces:R:3 R1=CH3 R2=CN R3=H R4=H lg=Cl nu=Br rxn-id=2019 mp2_energy=-88244.64141436027 energy=-88244.64141539377 free_energy=-88244.64141539377 pbc="F F F"
C        0.61271049      -0.05435007       0.00724427       0.00050658      -0.01551318       0.02852921       0.00047828      -0.01550537       0.02852332
C        1.15530931       1.36337703       0.05180763       0.00255547      -0.01509117       0.00964699       0.00254436      -0.01511288       0.00965391
H        2.24862316       1.29927437       0.05589459       0.00989380       0.02184636       0.02299836       0.00989969       0.02184844       0.02299860
Cl      -1.20904348       0.01608053      -0.10705969      -0.03280021      -0.00602315       0.00534951      -0.03277395      -0.00601951       0.00534200
Br       4.62072997       0.13100845      -0.34884222       0.05150984       0.02133739      -0.03670042       0.05150788       0.02133744      -0.03670076
H        0.79943947       1.89087500       0.93891360      -0.01920049       0.01336903      -0.03209230      -0.01920057       0.01337253      -0.03209116
H        0.82780440       1.89394273      -0.84518895       0.01276322       0.02147657       0.01346221       0.01276137       0.02148919       0.01344845
C        1.14997636      -0.82831796      -1.18379368       0.00002267      -0.00327730       0.01756213       0.00001153      -0.00327241       0.01758530
H        0.83379169      -0.32794043      -2.10184781       0.00437805      -0.02321355      -0.01280323       0.00437563      -0.02320740      -0.01282258
H        2.24341377      -0.81292336      -1.12253331       0.00730917      -0.02542373      -0.00804848       0.00731675      -0.02542483      -0.00805028
H        0.78075693      -1.85569783      -1.18045665      -0.01785748       0.01993474      -0.03123192      -0.01785809       0.01992971      -0.03123451
C        0.90396883      -0.76207316       1.25671299       0.03683372      -0.00578372       0.00960509       0.03684881      -0.00590257       0.00981560
N        1.13280855      -1.33227190       2.25769265      -0.05591436      -0.00363827       0.01372285      -0.05591162      -0.00353235       0.01353210
13
Properties=species:S:1:pos:R:3:mp2_forces:R:3:forces:R:3 R1=CH3 R2=CN R3=H R4=H lg=Cl nu=Br rxn-id=2019 mp2_energy=-88244.64141436027 energy=-88244.65032313426 free_energy=-88244.64141539377 pbc="F F F"
C        0.61362845      -0.05929984       0.01552036       0.00050658      -0.01551318       0.02852921      -0.00105129      -0.00034486       0.00041226
C        1.16423826       1.35559035       0.06940897       0.00255547      -0.01509117       0.00964699       0.00120232      -0.00159876       0.00272391
H        2.25531601       1.29178118       0.13006115       0.00989380       0.02184636       0.02299836       0.00190002      -0.00310389      -0.00152520
Cl      -1.20936857       0.02562500      -0.12323055      -0.03280021      -0.00602315       0.00534951      -0.00054543       0.00356492      -0.00723633
Br       4.64169721       0.20183155      -0.48236442       0.05150984       0.02133739      -0.03670042      -0.00007165       0.01155669      -0.01917010
H        0.76001323       1.90036506       0.92499318      -0.01920049       0.01336903      -0.03209230       0.00482802      -0.00202044       0.00521133
H        0.89261885       1.87855633      -0.85050062       0.01276322       0.02147657       0.01346221       0.00022667       0.00006386       0.00376171
C        1.15571728      -0.83656074      -1.17196231       0.00002267      -0.00327730       0.01756213       0.00179421      -0.00204240       0.00321415
H        0.86366656      -0.32736469      -2.09340119       0.00437805      -0.02321355      -0.01280323       0.00656331      -0.00084917       0.00215460
H        2.24822328      -0.84373411      -1.10170514       0.00730917      -0.02542373      -0.00804848       0.00213884      -0.00253093       0.00605882
H        0.76311685      -1.85522925      -1.18502744      -0.01785748       0.01993474      -0.03123192       0.00074419      -0.00209263       0.00171136
C        0.88200759      -0.76945268       1.26896437       0.03683372      -0.00578372       0.00960509      -0.00497301      -0.00034005       0.00108466
N        1.06941444      -1.34112477       2.27778706      -0.05591436      -0.00363827       0.01372285      -0.01275618      -0.00026234       0.00159883
13
Properties=species:S:1:pos:R:3:mp2_forces:R:3:forces:R:3 R1=CH3 R2=CN R3=H R4=H lg=Cl nu=Br rxn-id=2019 mp2_energy=-88244.64141436027 energy=-88244.6584690957 free_energy=-88244.64141539377 pbc="F F F"
C        0.59998741      -0.06460132       0.02415501       0.00050658      -0.01551318       0.02852921      -0.00063915       0.00002994      -0.00003099
C        1.18428143       1.33579719       0.10283801       0.00255547      -0.01509117       0.00964699      -0.00024440      -0.00022958       0.00019659
H        2.27316722       1.25041755       0.17028646       0.00989380       0.02184636       0.02299836      -0.00026538      -0.00038330       0.00237292
Cl      -1.21118221       0.06866788      -0.20104623      -0.03280021      -0.00602315       0.00534951      -0.00131249      -0.00005792       0.00019966
Br       4.68719397       0.36350475      -0.75821035       0.05150984       0.02133739      -0.03670042      -0.00032651       0.00049385      -0.00094480
H        0.78286847       1.88090430       0.95978217      -0.01920049       0.01336903      -0.03209230      -0.00187294       0.00093459      -0.00085875
H        0.93801610       1.87563477      -0.81466375       0.01276322       0.02147657       0.01346221       0.00223160      -0.00121990      -0.00106169
C        1.17699806      -0.85791249      -1.13618380       0.00002267      -0.00327730       0.01756213      -0.00030790      -0.00000478       0.00025645
H        0.93269700      -0.34840793      -2.07138023       0.00437805      -0.02321355      -0.01280323       0.00166032       0.00131391       0.00044856
H        2.26593199      -0.87894787      -1.03009496       0.00730917      -0.02542373      -0.00804848      -0.00028360      -0.00134660       0.00116504
H        0.76869684      -1.87049929      -1.16075756      -0.01785748       0.01993474      -0.03123192      -0.00152598       0.00013245      -0.00098126
C        0.78895848      -0.77940547       1.28848760       0.03683372      -0.00578372       0.00960509       0.00120942       0.00010144      -0.00022705
N        0.91267468      -1.35416868       2.30533104      -0.05591436      -0.00363827       0.01372285       0.00167700       0.00023591      -0.00053469
13
Properties=species:S:1:pos:R:3:mp2_forces:R:3:forces:R:3 R1=CH3 R2=CN R3=H R4=H lg=Cl nu=Br rxn-id=2019 mp2_energy=-88244.64141436027 energy=-88244.65816978128 free_energy=-88244.64141539377 pbc="F F F"
C        0.59725650      -0.06669825       0.02788557       0.00050658      -0.01551318       0.02852921      -0.00062603       0.00022424      -0.00038120
C        1.19099590       1.32929015       0.11401168       0.00255547      -0.01509117       0.00964699      -0.00052174       0.00022053      -0.00017110
H        2.27769505       1.23724004       0.19964586       0.00989380       0.02184636       0.02299836       0.00000554      -0.00017829      -0.00131253
Cl      -1.20955830       0.08057537      -0.22190951      -0.03280021      -0.00602315       0.00534951      -0.00094223      -0.00016836       0.00034686
Br       4.68545707       0.41536297      -0.84938913       0.05150984       0.02133739      -0.03670042       0.00000537      -0.00234196       0.00402769
H        0.77764728       1.88019517       0.96159044      -0.01920049       0.01336903      -0.03209230       0.00004045       0.00001398       0.00024513
H        0.96716294       1.86783374      -0.81005477       0.01276322       0.02147657       0.01346221      -0.00062081       0.00105519       0.00020643
C        1.18356887      -0.86420466      -1.12490639       0.00002267      -0.00327730       0.01756213      -0.00055815       0.00007869      -0.00031418
H        0.96144059      -0.34870081      -2.06241798       0.00437805      -0.02321355      -0.01280323      -0.00110452      -0.00087651      -0.00084130
H        2.27029157      -0.89720275      -1.00393549       0.00730917      -0.02542373      -0.00804848       0.00001662       0.00162916      -0.00084177
H        0.76351351      -1.87175035      -1.15905273      -0.01785748       0.01993474      -0.03123192       0.00033560      -0.00032029       0.00031931
C        0.76406648      -0.78269167       1.29439759       0.03683372      -0.00578372       0.00960509       0.00076183       0.00062073      -0.00112648
N        0.87075197      -1.35826554       2.31267828      -0.05591436      -0.00363827       0.01372285       0.00320808       0.00004288      -0.00015685
13
Properties=species:S:1:pos:R:3:mp2_forces:R:3:forces:R:3 R1=CH3 R2=CN R3=H R4=H lg=Cl nu=Br rxn-id=2019 mp2_energy=-88244.64141436027 energy=-88244.65526029261 free_energy=-88244.64141539377 pbc="F F F"
C        0.60454671      -0.06099451       0.01773756       0.00050658      -0.01551318       0.02852921       0.00024693      -0.00040088       0.00071901
C        1.16589502       1.34967729       0.07735661       0.00255547      -0.01509117       0.00964699       0.00117795      -0.00080382       0.00228139
H        2.25717458       1.27958339       0.12940251       0.00989380       0.02184636       0.02299836       0.00174594      -0.00104904       0.00293969
Cl      -1.21531512       0.03717993      -0.14497374      -0.03280021      -0.00602315       0.00534951       0.00015713       0.00282413      -0.00490906
Br       4.69335825       0.25081494      -0.55792351       0.05150984       0.02133739      -0.03670042       0.00130680       0.00825501      -0.01471854
H        0.77228054       1.89197698       0.93952161      -0.01920049       0.01336903      -0.03209230      -0.00039599      -0.00010393       0.00127519
H        0.89141928       1.88087919      -0.83703855       0.01276322       0.02147657       0.01346221       0.00303863      -0.00120475       0.00179786
C        1.15837936      -0.84321248      -1.16126880       0.00002267      -0.00327730       0.01756213       0.00114186      -0.00150485       0.00182869
H        0.88511632      -0.33212155      -2.08740804       0.00437805      -0.02321355      -0.01280323       0.00265105      -0.00108876       0.00191742
H        2.24976481      -0.85843055      -1.07680126       0.00730917      -0.02542373      -0.00804848       0.00173982      -0.00164688       0.00215264
H        0.75831477      -1.85906215      -1.18026445      -0.01785748       0.01993474      -0.03123192      -0.00012577      -0.00112110       0.00091540
C        0.85214478      -0.77181215       1.27459691       0.03683372      -0.00578372       0.00960509      -0.00295275      -0.00128414       0.00226900
N        1.02721017      -1.34349495       2.28560657      -0.05591436      -0.00363827       0.01372285      -0.00973159      -0.00087101       0.00153131
13
Properties=species:S:1:pos:R:3:mp2_forces:R:3:forces:R:3 R1=CH3 R2=CN R3=H R4=H lg=Cl nu=Br rxn-id=2019 mp2_energy=-88244.64141436027 energy=-88244.64576231965 free_energy=-88244.64141539377 pbc="F F F"
C        0.58084948      -0.06412451       0.02341654       0.00050658      -0.01551318       0.02852921       0.01606457       0.00590496      -0.01049750
C        1.19671060       1.31985169       0.13943782       0.00255547      -0.01509117       0.00964699       0.00443617       0.01027906      -0.01449530
H        2.28187445       1.21520617       0.21887075       0.00989380       0.02184636       0.02299836       0.00366882       0.00300225       0.00150931
Cl      -1.20621889       0.14651345      -0.33803852      -0.03280021      -0.00602315       0.00534951       0.01382409      -0.06943374       0.12238814
Br       4.67390979       0.47156968      -0.94816688       0.05150984       0.02133739      -0.03670042      -0.01549998      -0.00555518       0.00983465
H        0.79202016       1.85357374       1.00347055      -0.01920049       0.01336903      -0.03209230      -0.00167689       0.01396092      -0.01909647
H        0.97402727       1.88160959      -0.76962794       0.01276322       0.02147657       0.01346221       0.02328347       0.01467990      -0.01712870
C        1.18897277      -0.88111949      -1.10390529       0.00002267      -0.00327730       0.01756213       0.00440214       0.00713531      -0.01628432
H        0.96634521      -0.39113371      -2.05358513       0.00437805      -0.02321355      -0.01280323       0.02309525       0.00698886      -0.02145860
H        2.27440724      -0.90115174      -0.97631686       0.00730917      -0.02542373      -0.00804848       0.00362053      -0.00276778      -0.00186976
H        0.77866271      -1.89439871      -1.11402024      -0.01785748       0.01993474      -0.03123192      -0.00172659       0.00921531      -0.02172012
C        0.72275572      -0.78095571       1.29141376       0.03683372      -0.00578372       0.00960509      -0.00846941       0.00740528      -0.01301948
N        0.87597295      -1.35445706       2.30559486      -0.05591436      -0.00363827       0.01372285      -0.06502217      -0.00081514       0.00183817
13
Properties=species:S:1:pos:R:3:mp2_forces:R:3:forces:R:3 R1=CH3 R2=CN R3=H R4=H lg=Cl nu=Br rxn-id=2019 mp2_energy=-88244.64141436027 energy=-88244.31999905471 free_energy=-88244.64141539377 pbc="F F F"
C        0.51944553      -0.08021375       0.05210658       0.00050658      -0.01551318       0.02852921      -0.12032196       0.07940630      -0.13934284
C        1.16935100       1.29658883       0.18260475       0.00255547      -0.01509117       0.00964699      -0.00982643       0.03669756      -0.04537969
H        2.25896464       1.19798320       0.20502885       0.00989380       0.02184636       0.02299836      -0.00925636      -0.02184758       0.01758915
Cl      -1.28241263       0.37383286      -0.73867608      -0.03280021      -0.00602315       0.00534951       0.44046365      -0.35209008       0.61783172
Br       4.76264746       0.47826009      -0.96072290       0.05150984       0.02133739      -0.03670042      -0.00566587      -0.00620155       0.01094399
H        0.81456419       1.80371130       1.08215158      -0.01920049       0.01336903      -0.03209230      -0.02789506       0.02232496      -0.03775628
H        0.88881843       1.87208282      -0.69671139       0.01276322       0.02147657       0.01346221       0.08562512       0.10719299      -0.03460667
C        1.16175766      -0.90602722      -1.06166154       0.00002267      -0.00327730       0.01756213      -0.01030711       0.02028205      -0.05470130
H        0.88122068      -0.44832792      -2.00762311       0.00437805      -0.02321355      -0.01280323       0.08457680      -0.02597139      -0.10972695
H        2.25182323      -0.88022944      -0.96856003       0.00730917      -0.02542373      -0.00804848      -0.00959448      -0.00351088       0.02771283
H        0.80160746      -1.93635521      -1.03087951      -0.01785748       0.01993474      -0.03123192      -0.02821725       0.02122848      -0.03831195
C        0.78441903      -0.79432185       1.31455748       0.03683372      -0.00578372       0.00960509      -0.22829032       0.06920981      -0.12089351
N        1.08808276      -1.35600029       2.30692873      -0.05591436      -0.00363827       0.01372285      -0.16129074       0.05327934      -0.09335850
13
Properties=species:S:1:pos:R:3:mp2_forces:R:3:forces:R:3 R1=CH3 R2=CN R3=H R4=H lg=Cl nu=Br rxn-id=2019 mp2_energy=-88244.64141436027 energy=-88244.17560549368 free_energy=-88244.64141539377 pbc="F F F"
C        0.68988473      -0.19385747       0.25159599       0.00050658      -0.01551318       0.02852921       0.00401775      -0.00702269       0.01240763
C        1.18257877       1.24560532       0.24650750       0.00255547      -0.01509117       0.00964699      -0.00750609      -0.00353928       0.00527888
H        2.27153747       1.23388403       0.16864831       0.00989380       0.02184636       0.02299836      -0.00911571       0.00633647      -0.01086472
Cl      -1.89966987       0.87726163      -1.62211159      -0.03280021      -0.00602315       0.00534951       0.04436707       0.02997243      -0.05329038
Br       4.76781663       0.47909636      -0.96226899       0.05150984       0.02133739      -0.03670042      -0.01423698       0.00065400      -0.00112946
H        0.85965583       1.76841136       1.14119093      -0.01920049       0.01336903      -0.03209230       0.00097337      -0.00501895       0.00823748
H        0.75754337       1.72622059      -0.63969780       0.01276322       0.02147657       0.01346221      -0.02493239      -0.00960571       0.01120046
C        1.17566339      -0.93489761      -0.98520096       0.00002267      -0.00327730       0.01756213      -0.00748183      -0.00262931       0.00577262
H        0.75128149      -0.42150418      -1.85316595       0.00437805      -0.02321355      -0.01280323      -0.02494497      -0.00453229       0.01406599
H        2.26490160      -0.86787604      -1.01804284       0.00730917      -0.02542373      -0.00804848      -0.00909342       0.00616585      -0.01104172
H        0.84731945      -1.96932848      -0.97055802      -0.01785748       0.01993474      -0.03123192       0.00106743      -0.00446398       0.00856681
C        1.10320506      -0.87687036       1.45839538       0.03683372      -0.00578372       0.00960509       0.01964426      -0.00383958       0.00665758
N        1.32857153      -1.44516174       2.46325145      -0.05591436      -0.00363827       0.01372285       0.02724152      -0.00247697       0.00413884
13
Properties=species:S:1:pos:R:3:mp2_forces:R:3:forces:R:3 R1=CH3 R2=CN R3=H R4=H lg=Cl nu=Br rxn-id=2019 mp2_energy=-88244.64141436027 energy=-88244.3265836411 free_energy=-88244.64141539377 pbc="F F F"
C        0.68030442      -0.34009298       0.51160833       0.00050658      -0.01551318       0.02852921      -0.00178496       0.00133380      -0.00239617
C        0.96838072       1.15081907       0.41322805       0.00255547      -0.01509117       0.00964699       0.00300269       0.00057607       0.00120482
H        2.01980971       1.26849013       0.14277370       0.00989380       0.02184636       0.02299836       0.00446957      -0.00152985       0.00826560
Cl      -0.49843176       1.53678273      -2.80686293      -0.03280021      -0.00602315       0.00534951      -0.00969644      -0.00219392       0.00447778
Br       4.27358248       0.69136601      -1.33367919       0.05150984       0.02133739      -0.03670042      -0.00073868       0.00834076      -0.01485724
H        0.74275839       1.65576265       1.34672774      -0.01920049       0.01336903      -0.03209230      -0.00345311       0.00055156       0.00066303
H        0.36835498       1.54088505      -0.41774972       0.01276322       0.02147657       0.01346221       0.01042606       0.00373092      -0.00188315
C        0.96022128      -1.02631955      -0.81738783       0.00002267      -0.00327730       0.01756213       0.00299766      -0.00141584       0.00010274
H        0.36160685      -0.51141330      -1.57845336       0.00437805      -0.02321355      -0.01280323       0.01016957      -0.00064147      -0.00417021
H        2.01211545      -0.86228400      -1.06043297       0.00730917      -0.02542373      -0.00804848       0.00437106      -0.00614202       0.00539856
H        0.72756260      -2.08497739      -0.76814519      -0.01785748       0.01993474      -0.03123192      -0.00316225      -0.00096954      -0.00003335
C        1.46007312      -0.94406935       1.57459354       0.03683372      -0.00578372       0.00960509      -0.00757848      -0.00100360       0.00186789
N        2.02395123      -1.45396569       2.47232326      -0.05591436      -0.00363827       0.01372285      -0.00902268      -0.00063687       0.00135969
13
Properties=species:S:1:pos:R:3:mp2_forces:R:3:forces:R:3 R1=CH3 R2=CN R3=H R4=H lg=Cl nu=Br rxn-id=2019 mp2_energy=-88244.64141436027 energy=-88244.29447371635 free_energy=-88244.64141539377 pbc="F F F"
C        0.67724924      -0.33785690       0.50685935       0.00050658      -0.01551318       0.02852921      -0.01487800       0.00099563      -0.00166359
C        1.08780382       1.12506499       0.45421384       0.00255547      -0.01509117       0.00964699      -0.00924965       0.00065388      -0.00294012
H        2.14234684       1.18107194       0.18393321       0.00989380       0.02184636       0.02299836       0.00233446      -0.00701557       0.02440398
Cl      -0.42233894       1.51040016      -2.75230372      -0.03280021      -0.00602315       0.00534951      -0.01522481       0.00132130      -0.00264215
Br       3.94895887       1.09378794      -2.04613772       0.05150984       0.02133739      -0.03670042       0.00560096      -0.02004468       0.03535311
H        0.89174239       1.62953198       1.39351234      -0.01920049       0.01336903      -0.03209230      -0.03175418       0.00571460      -0.00794536
H        0.53096436       1.57264172      -0.38025995       0.01276322       0.02147657       0.01346221       0.01200371       0.00029074      -0.02149401
C        1.08059009      -1.04988949      -0.77448674       0.00002267      -0.00327730       0.01756213      -0.00927993       0.00231323      -0.00208126
H        0.52429550      -0.56298275      -1.58701150       0.00437805      -0.02321355      -0.01280323       0.01202553       0.01825503      -0.01131356
H        2.13575236      -0.85315037      -0.96463517       0.00730917      -0.02542373      -0.00804848       0.00216821      -0.01717507       0.01856143
H        0.87879560      -2.11370139      -0.72135890      -0.01785748       0.01993474      -0.03123192      -0.03175133       0.00413904      -0.00902970
C        1.17491448      -1.00525605       1.68526789       0.03683372      -0.00578372       0.00960509       0.01997356       0.00526837      -0.00947483
N        1.44921484      -1.56867838       2.68095049      -0.05591436      -0.00363827       0.01372285       0.05803147       0.00528350      -0.00973394
13
Properties=species:S:1:pos:R:3:mp2_forces:R:3:forces:R:3 R1=CH3 R2=CN R3=H R4=H lg=Cl nu=Br rxn-id=2019 mp2_energy=-88244.64141436027 energy=-88244.14409153911 free_energy=-88244.64141539377 pbc="F F F"
C        0.81092311      -0.34986895       0.52654545       0.00050658      -0.01551318       0.02852921      -0.15563557       0.01150733      -0.01975497
C        1.15613865       1.11932452       0.47175256       0.00255547      -0.01509117       0.00964699      -0.02035388       0.00636282      -0.00534215
H        2.11843785       1.25998028      -0.02634431       0.00989380       0.02184636       0.02299836       0.03403949      -0.04836645       0.04285045
Cl      -0.31208157       1.50521752      -2.73524721      -0.03280021      -0.00602315       0.00534951      -0.04092757      -0.00287275       0.00470510
Br       3.92721262       1.22127925      -2.27277072       0.05150984       0.02133739      -0.03670042       0.01704287      -0.01926947       0.03376724
H        1.13396211       1.59050053       1.44599889      -0.01920049       0.01336903      -0.03209230      -0.04114438      -0.00091140      -0.00142304
H        0.41584322       1.55371675      -0.21443482       0.01276322       0.02147657       0.01346221       0.03197379       0.07347209      -0.05858323
C        1.15039038      -1.06371771      -0.76028090       0.00002267      -0.00327730       0.01756213      -0.02040886       0.00151919      -0.00819180
H        0.41184184      -0.69529559      -1.48586789       0.00437805      -0.02321355      -0.01280323       0.03185144       0.01217233      -0.09289282
H        2.11480382      -0.71652956      -1.13856534       0.00730917      -0.02542373      -0.00804848       0.03381701      -0.01162630       0.06364761
H        1.12090482      -2.14121141      -0.66068785      -0.01785748       0.01993474      -0.03123192      -0.04116997       0.00203467      -0.00030737
C        1.04535635      -1.04219051       1.75203403       0.03683372      -0.00578372       0.00960509       0.04224849      -0.00645071       0.01115047
N        1.00655625      -1.62022172       2.77641154      -0.05591436      -0.00363827       0.01372285       0.12866713      -0.01757135       0.03037450
13
Properties=species:S:1:pos:R:3:mp2_forces:R:3:forces:R:3 R1=CH3 R2=CN R3=H R4=H lg=Cl nu=Br rxn-id=2019 mp2_energy=-88244.64141436027 energy=-88244.23816454114 free_energy=-88244.64141539377 pbc="F F F"
C        1.54856509      -0.39947321       0.61101991       0.00050658      -0.01551318       0.02852921      -0.01284632       0.00111507      -0.00193307
C        1.26733305       1.09373697       0.49894957       0.00255547      -0.01509117       0.00964699       0.01117367       0.00241614       0.00240749
H        1.96957428       1.49655455      -0.24559671       0.00989380       0.02184636       0.02299836       0.00980412      -0.00984663      -0.00547555
Cl      -0.16582784       1.51265384      -2.74557866      -0.03280021      -0.00602315       0.00534951      -0.03803330      -0.01874612       0.03257492
Br       3.83523047       1.31051781      -2.43226321       0.05150984       0.02133739      -0.03670042      -0.00626843       0.00475740      -0.00866846
H        1.36369495       1.58876860       1.45936448      -0.01920049       0.01336903      -0.03209230       0.03372716       0.00083411       0.00239415
H        0.27151690       1.22453830       0.08484569       0.01276322       0.02147657       0.01346221       0.00968791       0.01855429       0.01602770
C        1.26256807      -1.07465429      -0.72461718       0.00002267      -0.00327730       0.01756213       0.01106426      -0.00319039      -0.00088329
H        0.26888360      -0.78062811      -1.05113101       0.00437805      -0.02321355      -0.01280323       0.00935595      -0.02322555      -0.00745998
H        1.96799479      -0.65100878      -1.45442489       0.00730917      -0.02542373      -0.00804848       0.00965138       0.01010123       0.00548407
H        1.35123561      -2.15327389      -0.65121180      -0.01785748       0.01993474      -0.03123192       0.03369147      -0.00252146       0.00019311
C        0.82028902      -1.01013219       1.69675784       0.03683372      -0.00578372       0.00960509      -0.02546118       0.00745391      -0.01312905
N        0.33923146      -1.53661620       2.63242939      -0.05591436      -0.00363827       0.01372285      -0.04554668       0.01229799      -0.02153205
13
Properties=species:S:1:pos:R:3:mp2_forces:R:3:forces:R:3 R1=CH3 R2=CN R3=H R4=H lg=Cl nu=Br rxn-id=2019 mp2_energy=-88244.64141436027 energy=-88244.32534306271 free_energy=-88244.64141539377 pbc="F F F"
C        1.55241119      -0.40138520       0.61311103       0.00050658      -0.01551318       0.02852921      -0.00083105      -0.00079144       0.00144804
C        1.46581443       1.11280157       0.47311124       0.00255547      -0.01509117       0.00964699      -0.00097717      -0.00110140       0.00104523
H        2.28864416       1.42894216      -0.18158428       0.00989380       0.02184636       0.02299836      -0.00247466      -0.00183564      -0.00138460
Cl      -1.24358433       1.06093450      -1.95840406      -0.03280021      -0.00602315       0.00534951       0.00761292       0.00423262      -0.00738370
Br       4.00455551       1.30758496      -2.41636861       0.05150984       0.02133739      -0.03670042      -0.00071886       0.00329832      -0.00625025
H        1.51687574       1.59981456       1.44087643      -0.01920049       0.01336903      -0.03209230       0.00077707       0.00021525       0.00104918
H        0.52611780       1.34304663      -0.03606222       0.01276322       0.02147657       0.01346221      -0.00074714      -0.00084909       0.00125329
C        1.45548408      -1.06255987      -0.75560235       0.00002267      -0.00327730       0.01756213      -0.00087908      -0.00026441       0.00149791
H        0.51604508      -0.73906256      -1.21170970       0.00437805      -0.02321355      -0.01280323      -0.00063643      -0.00057358       0.00133195
H        2.27842368      -0.67038216      -1.36770432       0.00730917      -0.02542373      -0.00804848      -0.00233145       0.00219078       0.00092686
H        1.49971212      -2.14312497      -0.67338506      -0.01785748       0.01993474      -0.03123192       0.00084262      -0.00095659       0.00034685
C        0.51273572      -0.89409571       1.49430703       0.03683372      -0.00578372       0.00960509      -0.00131089      -0.00180934       0.00316388
N       -0.27294575      -1.32153050       2.25795828      -0.05591436      -0.00363827       0.01372285       0.00167412      -0.00175550       0.00295534
13
Properties=species:S:1:pos:R:3:mp2_forces:R:3:forces:R:3 R1=CH3 R2=CN R3=H R4=H lg=Cl nu=Br rxn-id=2019 mp2_energy=-88244.64141436027 energy=-88244.2883782364 free_energy=-88244.64141539377 pbc="F F F"
C        1.57824806      -0.33828139       0.50212715       0.00050658      -0.01551318       0.02852921      -0.00431072      -0.00434851       0.00775876
C        1.38729532       1.16720080       0.37294107       0.00255547      -0.01509117       0.00964699       0.00508254      -0.00332806       0.00610745
H        2.18236325       1.52003790      -0.29574068       0.00989380       0.02184636       0.02299836       0.00773903      -0.00953650       0.00480093
Cl      -1.47412852       1.00359452      -1.85380456      -0.03280021      -0.00602315       0.00534951       0.01186053       0.00114670      -0.00200547