13
Properties=species:S:1:pos:R:3:mp2_forces:R:3:forces:R:3 R1=NO2 R2=H R3=H R4=NO2 lg=Br nu=Cl rxn-id=861 mp2_energy=-95782.83145452052 energy=-95782.83145650776 free_energy=-95782.83145650776 pbc="F F F"
C        0.52262047      -0.03305240      -0.13180070       0.01166858       0.01204241       0.00261338       0.01171264       0.01204499       0.00256111
C        1.12374808       1.35161289      -0.29734155       0.04780274       0.00501216       0.02302785       0.04779078       0.00500956       0.02301535
H        2.03571355       1.26431301      -0.87774556       0.07303082       0.04945564       0.02839615       0.07302795       0.04945604       0.02839699
Br      -1.42183084      -0.03936439      -0.17866153      -0.06143099      -0.06437419       0.03321239      -0.06144650      -0.06440422       0.03323074
Cl       3.37804086      -0.28037807       1.06306816      -0.07366636       0.04034222       0.02319171      -0.07367244       0.04034335       0.02319002
H        0.83351826      -0.46188753       0.81525253       0.02384865       0.01999040       0.00731926       0.02384327       0.01998163       0.00734250
H        1.34656305       1.74614995       0.68753985       0.01994362       0.06508506       0.00665563       0.01994634       0.06508828       0.00667197
N        0.99799105      -1.02479228      -1.16699039      -0.01730341       0.01731151      -0.02783700      -0.01727507       0.01734008      -0.02790148
O        1.49142197      -0.59127108      -2.20019654      -0.02030020      -0.00039654      -0.06623203      -0.02033503      -0.00040594      -0.06616583
O        0.83034962      -2.20304746      -0.88039460      -0.05117872       0.03163439      -0.05023572      -0.05119400       0.03164877      -0.05021891
N        0.23885837       2.34107685      -0.98528328       0.04272212      -0.06295978       0.00436039       0.04273476      -0.06299728       0.00422592
O       -0.31088673       3.18639600      -0.27802606       0.01132720      -0.02080546       0.00246642       0.01131449      -0.02076309       0.00255112
O        0.12771835       2.26591598      -2.20678592      -0.00646406      -0.09233781       0.01306155      -0.00644720      -0.09234216       0.01310049
13
Properties=species:S:1:pos:R:3:mp2_forces:R:3:forces:R:3 R1=NO2 R2=H R3=H R4=NO2 lg=Br nu=Cl rxn-id=861 mp2_energy=-95782.83145452052 energy=-95782.99490394804 free_energy=-95782.83145650776 pbc="F F F"
C        0.73396139      -0.08823333      -0.19652079       0.01166858       0.01204241       0.00261338       0.00059948      -0.00041710       0.00255841
C        1.19352937       1.33977211      -0.34959041       0.04780274       0.00501216       0.02302785      -0.00271458       0.00045067       0.00328806
H        2.11241983       1.35802088      -0.93471500       0.07303082       0.04945564       0.02839615       0.00006498       0.00231533       0.00826508
Br      -1.04814154      -0.19055677       0.55021291      -0.06143099      -0.06437419       0.03321239       0.00326241      -0.00542648       0.00658422
Cl       2.91137035      -0.03388762       2.07606762      -0.07366636       0.04034222       0.02319171       0.00637354      -0.00482692      -0.00511025
H        1.43248422      -0.53428543       0.52620553       0.02384865       0.01999040       0.00731926       0.00357330       0.00024552      -0.00022870
H        1.37375063       1.74898400       0.63949211       0.01994362       0.06508506       0.00665563      -0.00833296       0.00253350       0.00319875
N        0.82578392      -0.90082184      -1.46212314      -0.01730341       0.01731151      -0.02783700      -0.00039523       0.00396072      -0.00000971
O        1.69786235      -0.55555410      -2.24861259      -0.02030020      -0.00039654      -0.06623203       0.00876643      -0.00346615       0.00900864
O        0.10290029      -1.88286808      -1.57544762      -0.05117872       0.03163439      -0.05023572      -0.01048881       0.01650486      -0.01264189
N        0.19861116       2.20160373      -1.04227089       0.04272212      -0.06295978       0.00436039      -0.00106748      -0.00278951      -0.00275577
O       -0.10707696       3.26478468      -0.50396396       0.01132720      -0.02080546       0.00246642       0.00613312       0.00300611      -0.01461165
O       -0.23362893       1.79471322      -2.11609936      -0.00646406      -0.09233781       0.01306155      -0.00577420      -0.01209054       0.00245480
13
Properties=species:S:1:pos:R:3:mp2_forces:R:3:forces:R:3 R1=NO2 R2=H R3=H R4=NO2 lg=Br nu=Cl rxn-id=861 mp2_energy=-95782.83145452052 energy=-95783.00807959976 free_energy=-95782.83145650776 pbc="F F F"
C        0.73816778      -0.09210118      -0.15612002       0.01166858       0.01204241       0.00261338       0.00000798      -0.00003653      -0.00010444
C        1.15237053       1.34935111      -0.29771542       0.04780274       0.00501216       0.02302785       0.00054876      -0.00023982      -0.00021160
H        2.11578244       1.39122641      -0.80552990       0.07303082       0.04945564       0.02839615       0.00005150      -0.00086155      -0.00130091
Br      -1.00590675      -0.26280422       0.64575823      -0.06143099      -0.06437419       0.03321239      -0.00110421       0.00015402      -0.00239307
Cl       3.02738875      -0.11407171       1.97966999      -0.07366636       0.04034222       0.02319171       0.00086210       0.00316587      -0.00032137
H        1.48039147      -0.52890288       0.52665227       0.02384865       0.01999040       0.00731926      -0.00065517      -0.00010308       0.00048655
H        1.24458401       1.78943039       0.68999572       0.01994362       0.06508506       0.00665563       0.00179360      -0.00037483      -0.00035917
N        0.81856590      -0.84234559      -1.45830711      -0.01730341       0.01731151      -0.02783700      -0.00083237      -0.00083842       0.00036384
O        1.82889628      -0.60908872      -2.10901726      -0.02030020      -0.00039654      -0.06623203       0.00093838      -0.00216209       0.00078406
O       -0.05726013      -1.64429212      -1.75490118      -0.05117872       0.03163439      -0.05023572      -0.00110542       0.00100867      -0.00026057
N        0.18370605       2.15588233      -1.09229678       0.04272212      -0.06295978       0.00436039       0.00005505      -0.00002750       0.00072107
O       -0.04590141       3.30016992      -0.70836692       0.01132720      -0.02080546       0.00246642      -0.00244815      -0.00111417       0.00332234
O       -0.28695886       1.62921774      -2.09718720      -0.00646406      -0.09233781       0.01306155       0.00188795       0.00142942      -0.00072673
13
Properties=species:S:1:pos:R:3:mp2_forces:R:3:forces:R:3 R1=NO2 R2=H R3=H R4=NO2 lg=Br nu=Cl rxn-id=861 mp2_energy=-95782.83145452052 energy=-95783.00516110561 free_energy=-95782.83145650776 pbc="F F F"
C        0.74692188      -0.08918154      -0.15891977       0.01166858       0.01204241       0.00261338       0.00477641       0.00286266       0.00418094
C        1.15009476       1.35451513      -0.30437617       0.04780274       0.00501216       0.02302785       0.00378638       0.00282925       0.00140071
H        2.11238307       1.40539563      -0.81311820       0.07303082       0.04945564       0.02839615       0.00234127       0.00036118      -0.00158445
Br      -0.97692586      -0.25162364       0.69566797      -0.06143099      -0.06437419       0.03321239      -0.00449350      -0.02189981      -0.04348213
Cl       2.98341112      -0.17806862       2.01687524      -0.07366636       0.04034222       0.02319171       0.00856518       0.00892657      -0.00170847
H        1.49842815      -0.52421365       0.51501867       0.02384865       0.01999040       0.00731926       0.00430279       0.00472816       0.00679660
H        1.23770121       1.79747200       0.68286661       0.01994362       0.06508506       0.00665563       0.00751721       0.00467478       0.00069703
N        0.82627692      -0.83376161      -1.46388842      -0.01730341       0.01731151      -0.02783700      -0.00540904      -0.00058008       0.00656174
O        1.82735954      -0.57965387      -2.12419894      -0.02030020      -0.00039654      -0.06623203      -0.00861319      -0.00970799       0.00345576
O       -0.03556411      -1.65152182      -1.75535224      -0.05117872       0.03163439      -0.05023572      -0.01458352       0.00336119       0.01166325
N        0.17510054       2.15289774      -1.10138288       0.04272212      -0.06295978       0.00436039       0.00158747       0.00185665       0.00315284
O       -0.02229072       3.31190843      -0.74662420       0.01132720      -0.02080546       0.00246642      -0.00471054       0.00000825       0.00727793
O       -0.32907045       1.60750729      -2.07993323      -0.00646406      -0.09233781       0.01306155       0.00493307       0.00257919       0.00158825
13
Properties=species:S:1:pos:R:3:mp2_forces:R:3:forces:R:3 R1=NO2 R2=H R3=H R4=NO2 lg=Br nu=Cl rxn-id=861 mp2_energy=-95782.83145452052 energy=-95782.88483599456 free_energy=-95782.83145650776 pbc="F F F"
C        0.70947272      -0.11727215      -0.19306397       0.01166858       0.01204241       0.00261338      -0.00246715       0.02888560       0.07243337
C        1.13011790       1.32666934      -0.31371289       0.04780274       0.00501216       0.02302785       0.01638817       0.02374903       0.01031861
H        2.09971588       1.39181551      -0.80476143       0.07303082       0.04945564       0.02839615       0.00345569       0.00187789      -0.01803554
Br      -0.94702443      -0.06879379       1.00645950      -0.06143099      -0.06437419       0.03321239       0.08665408      -0.16653370      -0.32346978
Cl       2.91078734      -0.19353929       2.03191794      -0.07366636       0.04034222       0.02319171       0.02772795      -0.00214059       0.01760252
H        1.46383688      -0.57414696       0.45758513       0.02384865       0.01999040       0.00731926       0.02942189       0.03890984       0.04608330
H        1.19572728       1.75038312       0.68124396       0.01994362       0.06508506       0.00665563       0.04780289       0.05453780      -0.00140395
N        0.87099610      -0.82569575      -1.52112760      -0.01730341       0.01731151      -0.02783700      -0.05910261       0.00655441       0.05637785
O        1.88163442      -0.50959167      -2.15149923      -0.02030020      -0.00039654      -0.06623203      -0.06392513      -0.02048000       0.03293988
O        0.06436030      -1.68245721      -1.84970452      -0.05117872       0.03163439      -0.05023572      -0.08663291       0.02271503       0.07338962
N        0.16628928       2.13298826      -1.11584300       0.04272212      -0.06295978       0.00436039       0.00441329       0.00977324       0.01106450
O        0.00478854       3.30155451      -0.77759219       0.01132720      -0.02080546       0.00246642      -0.00932981       0.00694257       0.00662195
O       -0.35687615       1.58975755      -2.08726729      -0.00646406      -0.09233781       0.01306155       0.00559365      -0.00479112       0.01607766
13
Properties=species:S:1:pos:R:3:mp2_forces:R:3:forces:R:3 R1=NO2 R2=H R3=H R4=NO2 lg=Br nu=Cl rxn-id=861 mp2_energy=-95782.83145452052 energy=-95782.77758860365 free_energy=-95782.83145650776 pbc="F F F"
C        0.71037249      -0.21578319      -0.42763094       0.01166858       0.01204241       0.00261338       0.00239554      -0.01011532      -0.01405403
C        1.07650143       1.24272316      -0.35435836       0.04780274       0.00501216       0.02302785      -0.01306245      -0.00982204      -0.01221784
H        2.07938495       1.37375374      -0.76349830       0.07303082       0.04945564       0.02839615      -0.00730425       0.01311211       0.02212366
Br      -1.21476168       0.48269643       2.06798863      -0.06143099      -0.06437419       0.03321239       0.04266478       0.02488563       0.04759431
Cl       2.81271987      -0.17085369       1.99129465      -0.07366636       0.04034222       0.02319171      -0.01220645      -0.00999289       0.00603220
H        1.36149450      -0.68433013       0.32427960       0.02384865       0.01999040       0.00731926      -0.01789879       0.02810075       0.03347417
H        1.04878206       1.55635992       0.68376254       0.01994362       0.06508506       0.00665563      -0.03833815      -0.02729338      -0.01133621
N        1.06969976      -0.84344647      -1.71466673      -0.01730341       0.01731151      -0.02783700       0.01244460      -0.00379029      -0.00678676
O        2.08578066      -0.43420360      -2.26720854      -0.02030020      -0.00039654      -0.06623203       0.00463150       0.01340752      -0.01510303
O        0.33893338      -1.75268072      -2.10535423      -0.05117872       0.03163439      -0.05023572       0.00340353       0.00531435      -0.02318279
N        0.15990167       2.10257822      -1.14619823       0.04272212      -0.06295978       0.00436039       0.00808693      -0.00775612      -0.01599729
O        0.02770683       3.26869073      -0.78626646       0.01132720      -0.02080546       0.00246642       0.00876292      -0.01331416       0.00469732
O       -0.36268986       1.59616707      -2.13950922      -0.00646406      -0.09233781       0.01306155       0.00642028      -0.00273615      -0.01524371
13
Properties=species:S:1:pos:R:3:mp2_forces:R:3:forces:R:3 R1=NO2 R2=H R3=H R4=NO2 lg=Br nu=Cl rxn-id=861 mp2_energy=-95782.83145452052 energy=-95782.92702665422 free_energy=-95782.83145650776 pbc="F F F"
C        0.48744666      -0.24397843      -0.62160116       0.01166858       0.01204241       0.00261338       0.00669144      -0.00185662       0.00630420
C        0.81813345       1.19933906      -0.37827190       0.04780274       0.00501216       0.02302785      -0.00009824      -0.00094236       0.00236980
H        1.89991351       1.32983194      -0.40061505       0.07303082       0.04945564       0.02839615      -0.00006406       0.00554883       0.00259878
Br      -0.06247964       0.53516582       3.00527173      -0.06143099      -0.06437419       0.03321239      -0.02632930       0.03779921       0.01067936
Cl       2.38791216      -0.20531816       2.04258171      -0.07366636       0.04034222       0.02319171       0.01345765      -0.03959049      -0.02979469
H        0.91342577      -0.74468067       0.26114324       0.02384865       0.01999040       0.00731926       0.01796905      -0.00002118       0.00247863
H        0.47513291       1.43967905       0.63181998       0.01994362       0.06508506       0.00665563      -0.00430214       0.00061594       0.00221259
N        1.16952460      -0.80943886      -1.80657182      -0.01730341       0.01731151      -0.02783700       0.00296179       0.00207566       0.00114615
O        2.21682030      -0.27468939      -2.15828754      -0.02030020      -0.00039654      -0.06623203       0.00420046      -0.00002528       0.00258268
O        0.63603572      -1.78436096      -2.33161890      -0.05117872       0.03163439      -0.05023572      -0.00212763       0.00661424      -0.00448648
N        0.22263471       2.12289925      -1.37305539       0.04272212      -0.06295978       0.00436039      -0.00092457       0.00836715       0.01037870
O        0.17435847       3.30740364      -1.05962308       0.01132720      -0.02080546       0.00246642      -0.01252158      -0.00932376      -0.00078891
O       -0.14503256       1.64981916      -2.44853740      -0.00646406      -0.09233781       0.01306155       0.00108714      -0.00926132      -0.00568084
13
Properties=species:S:1:pos:R:3:mp2_forces:R:3:forces:R:3 R1=NO2 R2=H R3=H R4=NO2 lg=Br nu=Cl rxn-id=861 mp2_energy=-95782.83145452052 energy=-95782.94453715351 free_energy=-95782.83145650776 pbc="F F F"
C        0.29412310      -0.14211175      -0.65270600       0.01166858       0.01204241       0.00261338      -0.00112782      -0.00171624       0.00076261
C        0.85378900       1.23020825      -0.41156900       0.04780274       0.00501216       0.02302785      -0.00214494      -0.00124281       0.00048463
H        1.94073395       1.20844986      -0.46735467       0.07303082       0.04945564       0.02839615      -0.00127624      -0.00278610       0.00468782
Br       0.17799570      -0.78582512       2.58677171      -0.06143099      -0.06437419       0.03321239       0.02536332       0.00966297       0.01190353
Cl       2.51164156       1.01080631       2.27651560      -0.07366636       0.04034222       0.02319171      -0.01751938      -0.00404201       0.01033803
H        0.42482794      -0.67875009       0.30228783       0.02384865       0.01999040       0.00731926       0.00673418      -0.00236352       0.00080982
H        0.59606794       1.54565421       0.59538461       0.01994362       0.06508506       0.00665563      -0.00533771       0.00049182      -0.00036175
N        1.03106837      -0.88937490      -1.70183634      -0.01730341       0.01731151      -0.02783700      -0.00473361       0.00196118      -0.00464078
O        2.13476739      -0.46868539      -2.03648068      -0.02030020      -0.00039654      -0.06623203      -0.00179447      -0.00208108       0.00125234
O        0.47406219      -1.89362666      -2.13599126      -0.05117872       0.03163439      -0.05023572      -0.00967711       0.00712578      -0.01456524
N        0.36268162       2.21238437      -1.40795307       0.04272212      -0.06295978       0.00436039       0.00263879      -0.00109983      -0.00222961
O        0.33017081       3.38902288      -1.06175136       0.01132720      -0.02080546       0.00246642      -0.00413453      -0.00103509      -0.00210928
O        0.06189647       1.78351950      -2.52268296      -0.00646406      -0.09233781       0.01306155       0.01300953      -0.00287507      -0.00633212
13
Properties=species:S:1:pos:R:3:mp2_forces:R:3:forces:R:3 R1=NO2 R2=H R3=H R4=NO2 lg=Br nu=Cl rxn-id=861 mp2_energy=-95782.83145452052 energy=-95782.90413464502 free_energy=-95782.83145650776 pbc="F F F"
C        0.28883708      -0.13636007      -0.75015894       0.01166858       0.01204241       0.00261338      -0.00429796      -0.00201240       0.00315866
C        0.94985427       1.18981192      -0.44585217       0.04780274       0.00501216       0.02302785      -0.00460557      -0.00383283       0.00509960
H        2.00851936       1.16619627      -0.70146275       0.07303082       0.04945564       0.02839615      -0.00218830      -0.00603655       0.01924493
Br      -0.52079250      -0.97721836       2.39230185      -0.06143099      -0.06437419       0.03321239       0.00731279      -0.00483581       0.00963841
Cl       3.05742644       1.56665882       2.05272772      -0.07366636       0.04034222       0.02319171       0.00502383       0.01020679      -0.01194095
H        0.14942052      -0.67872178       0.19701725       0.02384865       0.01999040       0.00731926       0.00001776      -0.00494432       0.00128175
H        0.84186627       1.42318243       0.61040410       0.01994362       0.06508506       0.00665563      -0.01651203       0.00066718       0.00401346
N        1.09597937      -1.00568014      -1.64127006      -0.01730341       0.01731151      -0.02783700      -0.00417588       0.00556225      -0.00423254
O        2.14927181      -0.56713734      -2.09749070      -0.02030020      -0.00039654      -0.06623203      -0.00726477       0.01001231      -0.00356046
O        0.62185091      -2.11557970      -1.86731181      -0.05117872       0.03163439      -0.05023572      -0.00319565       0.00479416      -0.00904911
N        0.32875793       2.27414673      -1.25231268       0.04272212      -0.06295978       0.00436039       0.00723270       0.00455175       0.00740574
O        0.09035859       3.34391479      -0.69016492       0.01132720      -0.02080546       0.00246642       0.00024204      -0.00870929      -0.01024767
O        0.13247601       2.03845790      -2.44379247      -0.00646406      -0.09233781       0.01306155       0.02241105      -0.00542323      -0.01081181
13
Properties=species:S:1:pos:R:3:mp2_forces:R:3:forces:R:3 R1=NO2 R2=H R3=H R4=NO2 lg=Br nu=Cl rxn-id=861 mp2_energy=-95782.83145452052 energy=-95782.92726279913 free_energy=-95782.83145650776 pbc="F F F"
C        0.25285992      -0.16383488      -0.69634414       0.01166858       0.01204241       0.00261338      -0.00487162       0.00025918       0.00047523
C        0.85257431       1.17413215      -0.35897542       0.04780274       0.00501216       0.02302785      -0.00674913       0.00657331       0.00190486
H        1.94187300       1.14630046      -0.37496950       0.07303082       0.04945564       0.02839615      -0.00555428       0.00435839       0.01177725
Br      -0.47158788      -1.07336862       2.45641335      -0.06143099      -0.06437419       0.03321239       0.00722545      -0.02194219       0.00048244
Cl       3.16731287       1.59427567       1.93153923      -0.07366636       0.04034222       0.02319171       0.01307688       0.00292100      -0.01379174
H        0.19886168      -0.75177348       0.23207922       0.02384865       0.01999040       0.00731926      -0.00220477       0.00145948       0.00334032
H        0.54599218       1.46364581       0.64605647       0.01994362       0.06508506       0.00665563      -0.01517101       0.00695486      -0.00278428
N        1.07079240      -0.91651494      -1.68147691      -0.01730341       0.01731151      -0.02783700      -0.00113651       0.00008745       0.00343476
O        2.08327152      -0.37973532      -2.12388669      -0.02030020      -0.00039654      -0.06623203       0.00709845      -0.00616284       0.01595668
O        0.64774271      -2.02708364      -1.98556229      -0.05117872       0.03163439      -0.05023572      -0.00814237       0.00472633      -0.00558720
N        0.40388871       2.21991540      -1.31592289       0.04272212      -0.06295978       0.00436039      -0.00065283      -0.01965377      -0.02458069
O        0.38653023       3.37485832      -0.90773339       0.01132720      -0.02080546       0.00246642       0.00264883       0.02100576       0.00834716
O        0.11371442       1.86085453      -2.45858261      -0.00646406      -0.09233781       0.01306155       0.01443290      -0.00058697       0.00102522
13
Properties=species:S:1:pos:R:3:mp2_forces:R:3:forces:R:3 R1=NO2 R2=H R3=H R4=NO2 lg=Br nu=Cl rxn-id=861 mp2_energy=-95782.83145452052 energy=-95782.92073839014 free_energy=-95782.83145650776 pbc="F F F"
C        0.34546959      -0.25618000      -0.74787834       0.01166858       0.01204241       0.00261338      -0.09290487       0.00925920      -0.04744705
C        0.74641515       1.11002435      -0.27007221       0.04780274       0.00501216       0.02302785      -0.03737981      -0.00634455      -0.02047759
H        1.79677637       1.20252553      -0.00267869       0.07303082       0.04945564       0.02839615      -0.02975214      -0.04539588      -0.00686599
Br      -0.65700897      -0.50651603       2.37087756      -0.06143099      -0.06437419       0.03321239       0.06046941       0.00454040       0.04313224
Cl       3.46225454       1.38962800       1.87855155      -0.07366636       0.04034222       0.02319171      -0.01229722      -0.00276086      -0.01947943
H        0.27164957      -0.89301276       0.13931112       0.02384865       0.01999040       0.00731926       0.03837499      -0.01763727       0.02895952
H        0.15784577       1.27043979       0.64446049       0.01994362       0.06508506       0.00665563      -0.03262855      -0.00283979      -0.01586650
N        1.23419588      -0.83197380      -1.73956122      -0.01730341       0.01731151      -0.02783700       0.00535618      -0.01727754       0.00371327
O        2.13329274      -0.11910645      -2.19962839      -0.02030020      -0.00039654      -0.06623203       0.01765040      -0.00836674       0.03605264
O        0.97422810      -1.97605470      -2.11038627      -0.05117872       0.03163439      -0.05023572       0.05652973      -0.04002490      -0.00108400
N        0.35814044       2.11739264      -1.28337303       0.04272212      -0.06295978       0.00436039      -0.00185873       0.03027919      -0.00447657
O        1.01615321       3.14764634      -1.35571686       0.01132720      -0.02080546       0.00246642       0.03551544       0.01806714       0.02586816
O       -0.64558630       1.86685856      -1.96127130      -0.00646406      -0.09233781       0.01306155      -0.00707483       0.07850160      -0.02202869
13
Properties=species:S:1:pos:R:3:mp2_forces:R:3:forces:R:3 R1=NO2 R2=H R3=H R4=NO2 lg=Br nu=Cl rxn-id=861 mp2_energy=-95782.83145452052 energy=-95782.772924352 free_energy=-95782.83145650776 pbc="F F F"
C        1.02103424      -0.38514198      -0.40358061       0.01166858       0.01204241       0.00261338      -0.01017321      -0.00080916      -0.00297633
C        0.99946883       1.10231697      -0.11370413       0.04780274       0.00501216       0.02302785      -0.00013060      -0.00180928      -0.00003514
H        1.99820331       1.50525073       0.02958859       0.07303082       0.04945564       0.02839615       0.00202585      -0.00629863       0.00353115
Br      -1.16644449      -0.23286220       2.12955531      -0.06143099      -0.06437419       0.03321239       0.00260257      -0.01405132       0.00025431
Cl       3.49280887       1.39352897       1.95559464      -0.07366636       0.04034222       0.02319171       0.00936268       0.02326007      -0.00359006
H        0.10539416      -0.84933532      -0.03733584       0.02384865       0.01999040       0.00731926      -0.01685202       0.00631681      -0.01032633
H        0.38563200       1.20522806       0.78265349       0.01994362       0.06508506       0.00665563       0.00011579      -0.00028904       0.00030331
N        1.22858842      -0.70128096      -1.80910803      -0.01730341       0.01731151      -0.02783700      -0.00155541      -0.00532512       0.00008600
O        2.07186901      -0.01581820      -2.40434425      -0.02030020      -0.00039654      -0.06623203       0.00418900      -0.00947351       0.00361041
O        0.58390550      -1.62662465      -2.29521602      -0.05117872       0.03163439      -0.05023572       0.00073987      -0.00719787      -0.00094194
N        0.33256303       1.84745635      -1.22275510       0.04272212      -0.06295978       0.00436039       0.00524921       0.00617783       0.00307908
O        0.79172138       2.95024829      -1.50767971       0.01132720      -0.02080546       0.00246642       0.00288464       0.00369437       0.00878259
O       -0.65091821       1.32870540      -1.74103392      -0.00646406      -0.09233781       0.01306155       0.00154163       0.00580483      -0.00177707
13
Properties=species:S:1:pos:R:3:mp2_forces:R:3:forces:R:3 R1=NO2 R2=H R3=H R4=NO2 lg=Br nu=Cl rxn-id=861 mp2_energy=-95782.83145452052 energy=-95782.73354024 free_energy=-95782.83145650776 pbc="F F F"
C        1.10869491      -0.27726304      -0.32038388       0.01166858       0.01204241       0.00261338      -0.01443110      -0.00753412      -0.01106011
C        0.94982767       1.21901241      -0.11099322       0.04780274       0.00501216       0.02302785       0.00766971      -0.00643524      -0.00498041
H        1.90939386       1.69534611       0.04734468       0.07303082       0.04945564       0.02839615       0.01377194      -0.01602862      -0.01231943
Br      -1.19002653      -0.26826041       2.09749945      -0.06143099      -0.06437419       0.03321239       0.00272115      -0.00406301      -0.00247261
Cl       3.44835049       0.80191138       1.67383103      -0.07366636       0.04034222       0.02319171       0.02713873       0.04118762       0.05878071
H        0.23729979      -0.79165528       0.08590276       0.02384865       0.01999040       0.00731926      -0.02194749       0.00251314      -0.01421872
H        0.28641877       1.30677375       0.75122762       0.01994362       0.06508506       0.00665563       0.01758787       0.00170361       0.00104633
N        1.31033881      -0.66662477      -1.71086546      -0.01730341       0.01731151      -0.02783700      -0.00990718      -0.00357232      -0.00909093
O        2.10678044       0.02509234      -2.36022096      -0.02030020      -0.00039654      -0.06623203      -0.01050063      -0.00075352      -0.00636261
O        0.71104673      -1.65372997      -2.12576504      -0.05117872       0.03163439      -0.05023572      -0.00374262      -0.00686243      -0.01113034
N        0.27985529       1.87229996      -1.27313629       0.04272212      -0.06295978       0.00436039      -0.00090840      -0.00188467       0.00200469
O        0.68450371       2.98817801      -1.58967110       0.01132720      -0.02080546       0.00246642      -0.00457264       0.00113710       0.00537723
O       -0.64865786       1.27059099      -1.80213518      -0.00646406      -0.09233781       0.01306155      -0.00287935       0.00059247       0.00442621
13
Properties=species:S:1:pos:R:3:mp2_forces:R:3:forces:R:3 R1=NO2 R2=H R3=H R4=NO2 lg=Br nu=Cl rxn-id=861 mp2_energy=-95782.83145452052 energy=-95782.7384118519 free_energy=-95782.83145650776 pbc="F F F"
C        1.30870417      -0.15459671      -0.16453693       0.01166858       0.01204241       0.00261338       0.11501240       0.07503006       0.09485596
C        0.92094241       1.32168298      -0.10094623       0.04780274       0.00501216       0.02302785      -0.00985454       0.06677137       0.00053923
H        1.81975421       1.91923535       0.02358589       0.07303082       0.04945564       0.02839615      -0.04317716       0.13746772      -0.03596584
Br      -1.17641734      -0.27963226       2.12410118      -0.06143099      -0.06437419       0.03321239       0.00928229      -0.02181303       0.01193516