9
Lattice="1.0 0.0 0.0 0.0 1.0 0.0 0.0 0.0 1.0" Properties=species:S:1:pos:R:3:forces:R:3 R1=H R2=H R3=CH3 R4=CH3 leaving_group=Cl nucleophile=Cl rxn=sn2 config=rcc label=H_H_CH3_CH3_Cl_Cl_sn2_rcc conformation=0 reactant_id=H_H_CH3_CH3_Cl_none_-_r product_id=H_H_CH3_CH3_none_Cl_sn2_pc mp2_author_energy=-29302.391748605172 mp2_my_energy=0 hash=59123 address=T id=71 energy=-17372.33216497299 free_energy=-17372.33216497299 cell="(1,0,0), (0,1,0), (0,0,1)" pbc="F F F"
C        0.09142836      -0.02057665       0.00018700      -0.00383810       0.00153641      -0.00068481
C        1.58722280       0.14924827      -0.00111085       0.00020147      -0.00237977      -0.00061630
H        2.03195864      -0.84661872      -0.00635447      -0.00043287       0.00066109       0.00360198
F       -0.53491861       1.24651010      -0.01033438       0.00123778      -0.00105707       0.00337249
Cl       0.88543890      -3.39675651       0.00603569      -0.00050197      -0.00038193      -0.00016305
H       -0.24798218      -0.56713807      -0.87777751      -0.00113173       0.00148985       0.00279851
H       -0.24989953      -0.55273097       0.88632969       0.00349898      -0.00246302      -0.00540624
H        1.91405155       0.69490750       0.88785996      -0.00213133       0.00382493      -0.00088743
H        1.90859158       0.70242064      -0.88742268       0.00309776      -0.00123049      -0.00201515
9
Lattice="1.0 0.0 0.0 0.0 1.0 0.0 0.0 0.0 1.0" Properties=species:S:1:pos:R:3:forces:R:3 R1=H R2=H R3=CH3 R4=CH3 leaving_group=Cl nucleophile=Cl rxn=sn2 config=rcc label=H_H_CH3_CH3_Cl_Cl_sn2_rcc conformation=0 reactant_id=H_H_CH3_CH3_Cl_none_-_r product_id=H_H_CH3_CH3_none_Cl_sn2_pc mp2_author_energy=-29302.391748605172 mp2_my_energy=0 hash=59123 address=T id=71 energy=-17372.331604001833 free_energy=-17372.331604001833 cell="(1,0,0), (0,1,0), (0,0,1)" stress="-6.707945688486574e-11 1.4594992642750462e-09 -2.292194304682927e-10 1.4594992642750462e-09 4.729315327870576e-10 6.1947423331335375e-09 -2.292194304682927e-10 6.1947423331335375e-09 2.5668079341328613e-10" pbc="F F F"
C        0.08911060      -0.01678388       0.01580439      -0.00010904       0.00012587      -0.00081127
C        1.58581498       0.14718227       0.01064315      -0.00007909      -0.00019192      -0.00063033
H        2.02687062      -0.84911101       0.06154744      -0.00038571      -0.00052608      -0.00335607
F       -0.53358984       1.25054736      -0.04360100       0.00011536       0.00044050       0.00186143
Cl       0.89907865      -3.40213874      -0.09113144       0.00081419       0.00025161       0.00497712
H       -0.25130319      -0.59806854      -0.83860957      -0.00035031       0.00204569      -0.00212225
H       -0.25511977      -0.51096456       0.92338276      -0.00011918      -0.00186238      -0.00184970
H        1.91184616       0.74521152       0.86596155       0.00018645      -0.00282321       0.00118339
H        1.91318329       0.64339117      -0.90658482      -0.00007267       0.00253992       0.00074769
9
Lattice="1.0 0.0 0.0 0.0 1.0 0.0 0.0 0.0 1.0" Properties=species:S:1:pos:R:3:forces:R:3 R1=H R2=H R3=CH3 R4=CH3 leaving_group=Cl nucleophile=Cl rxn=sn2 config=rcc label=H_H_CH3_CH3_Cl_Cl_sn2_rcc conformation=0 reactant_id=H_H_CH3_CH3_Cl_none_-_r product_id=H_H_CH3_CH3_none_Cl_sn2_pc mp2_author_energy=-29302.391748605172 mp2_my_energy=0 hash=59123 address=T id=71 energy=-17372.32982765262 free_energy=-17372.32982765262 cell="(1,0,0), (0,1,0), (0,0,1)" stress="-3.2197135142201807e-10 7.505145888499668e-09 -1.1576031059503522e-10 7.505145888499668e-09 -1.7675483903048961e-09 9.191709455810166e-09 -1.1576031059503522e-10 9.191709455810166e-09 9.72580795169355e-10" pbc="F F F"
C        0.08551337      -0.01094620       0.03313151      -0.00057599       0.00088082      -0.00103276
C        1.58327798       0.14373262       0.02343876      -0.00042148      -0.00076117      -0.00094095
H        2.01926282      -0.85112475       0.12376648      -0.00175254      -0.00201750      -0.00642591
F       -0.52968064       1.25543701      -0.08729374       0.00063368       0.00175491       0.00148819
Cl       0.92106978      -3.41212521      -0.19324236       0.00409256      -0.00063143       0.00728439
H       -0.25526264      -0.63242288      -0.79195620      -0.00131089       0.00296645      -0.00241525
H       -0.26404001      -0.45602654       0.96455950      -0.00100751      -0.00072639      -0.00195978
H        1.91173182       0.78681652       0.84465108       0.00084776      -0.00587432       0.00268773
H        1.91401903       0.58592502      -0.91964258      -0.00050559       0.00440863       0.00131435
9
Lattice="1.0 0.0 0.0 0.0 1.0 0.0 0.0 0.0 1.0" Properties=species:S:1:pos:R:3:forces:R:3 R1=H R2=H R3=CH3 R4=CH3 leaving_group=Cl nucleophile=Cl rxn=sn2 config=rcc label=H_H_CH3_CH3_Cl_Cl_sn2_rcc conformation=0 reactant_id=H_H_CH3_CH3_Cl_none_-_r product_id=H_H_CH3_CH3_none_Cl_sn2_pc mp2_author_energy=-29302.391748605172 mp2_my_energy=0 hash=59123 address=T id=71 energy=-17372.327790585405 free_energy=-17372.327790585405 cell="(1,0,0), (0,1,0), (0,0,1)" stress="-4.951894161483027e-10 1.7610563152833756e-08 4.1863004336152884e-10 1.7610563152833756e-08 -8.076123403700087e-09 1.2423413157801355e-08 4.1863004336152884e-10 1.2423413157801355e-08 1.7545164175753852e-09" pbc="F F F"
C        0.08751790      -0.01396052       0.04260469      -0.00136266       0.00231206      -0.00104549
C        1.58476299       0.14673268       0.03128618      -0.00098123      -0.00155776      -0.00123798
H        2.02633786      -0.84065144       0.17213882      -0.00401376      -0.00449030      -0.01219346
F       -0.53193410       1.24733627      -0.10489127       0.00147318       0.00367879      -0.00124222
Cl       0.90571017      -3.41119969      -0.25516633       0.00956131      -0.00323559       0.00961235
H       -0.24966287      -0.65519067      -0.76830170      -0.00268288       0.00311634      -0.00127148
H       -0.26103000      -0.43914189       0.98395752      -0.00264921       0.00323106      -0.00111488
H        1.90725412       0.82673086       0.82483016       0.00226166      -0.01140418       0.00579414
H        1.91693544       0.54860999      -0.92904562      -0.00160641       0.00834957       0.00269903
9
Lattice="1.0 0.0 0.0 0.0 1.0 0.0 0.0 0.0 1.0" Properties=species:S:1:pos:R:3:forces:R:3 R1=H R2=H R3=CH3 R4=CH3 leaving_group=Cl nucleophile=Cl rxn=sn2 config=rcc label=H_H_CH3_CH3_Cl_Cl_sn2_rcc conformation=0 reactant_id=H_H_CH3_CH3_Cl_none_-_r product_id=H_H_CH3_CH3_none_Cl_sn2_pc mp2_author_energy=-29302.391748605172 mp2_my_energy=0 hash=59123 address=T id=71 energy=-17372.327540891158 free_energy=-17372.327540891158 cell="(1,0,0), (0,1,0), (0,0,1)" stress="-3.3041226572321265e-10 2.0211547677508e-08 4.4788631043823253e-10 2.0211547677508e-08 -1.0135084556292283e-08 1.3251238413018859e-08 4.4788631043823253e-10 1.3251238413018859e-08 1.7348863239656835e-09" pbc="F F F"
C        0.09020080      -0.01794003       0.04021603      -0.00155744       0.00271459      -0.00109261
C        1.58666604       0.15002575       0.03023684      -0.00110379      -0.00173740      -0.00128167
H        2.03323774      -0.83506906       0.17093736      -0.00460586      -0.00508978      -0.01352694
F       -0.53475835       1.24188171      -0.09688489       0.00168742       0.00421347      -0.00191313
Cl       0.88811700      -3.40830933      -0.24495520       0.01095264      -0.00405946       0.01020807
H       -0.24468203      -0.65373446      -0.77578555      -0.00298040       0.00323198      -0.00106271
H       -0.25593665      -0.45296069       0.97785186      -0.00311330       0.00418933      -0.00098694
H        1.90484380       0.83070636       0.82494451       0.00258370      -0.01272275       0.00655628
H        1.91820317       0.55466534      -0.92914850      -0.00186297       0.00926002       0.00309966
9
Lattice="1.0 0.0 0.0 0.0 1.0 0.0 0.0 0.0 1.0" Properties=species:S:1:pos:R:3:forces:R:3 R1=H R2=H R3=CH3 R4=CH3 leaving_group=Cl nucleophile=Cl rxn=sn2 config=rcc label=H_H_CH3_CH3_Cl_Cl_sn2_rcc conformation=0 reactant_id=H_H_CH3_CH3_Cl_none_-_r product_id=H_H_CH3_CH3_none_Cl_sn2_pc mp2_author_energy=-29302.391748605172 mp2_my_energy=0 hash=59123 address=T id=71 energy=-17372.327055851063 free_energy=-17372.327055851063 cell="(1,0,0), (0,1,0), (0,0,1)" stress="1.8682695754895256e-12 2.3560770864099425e-08 2.492452134761675e-10 2.3560770864099425e-08 -1.7685779440984638e-08 1.445379861810091e-08 2.492452134761675e-10 1.445379861810091e-08 1.400458900548317e-09" pbc="F F F"
C        0.09447776      -0.02465259       0.03560463      -0.00183829       0.00350742      -0.00115583
C        1.58965267       0.15477088       0.02802118      -0.00128592      -0.00169222      -0.00131749
H        2.04405532      -0.82666570       0.16841802      -0.00542514      -0.00589466      -0.01623987
F       -0.53910659       1.23312163      -0.08059332       0.00181743       0.00515511      -0.00371341
Cl       0.86041037      -3.40044970      -0.22441822       0.01269446      -0.00689394       0.01104796
H       -0.23734488      -0.64864590      -0.79052309      -0.00306492       0.00289455      -0.00045761
H       -0.24746582      -0.47853165       0.96557725      -0.00381226       0.00621560      -0.00040738
H        1.90068472       0.83619179       0.82491420       0.00329840      -0.01495225       0.00828827
H        1.92052796       0.56412683      -0.92958820      -0.00238376       0.01166040       0.00395535
9
Lattice="1.0 0.0 0.0 0.0 1.0 0.0 0.0 0.0 1.0" Properties=species:S:1:pos:R:3:forces:R:3 R1=H R2=H R3=CH3 R4=CH3 leaving_group=Cl nucleophile=Cl rxn=sn2 config=rcc label=H_H_CH3_CH3_Cl_Cl_sn2_rcc conformation=0 reactant_id=H_H_CH3_CH3_Cl_none_-_r product_id=H_H_CH3_CH3_none_Cl_sn2_pc mp2_author_energy=-29302.391748605172 mp2_my_energy=0 hash=59123 address=T id=71 energy=-17372.32350338673 free_energy=-17372.32350338673 cell="(1,0,0), (0,1,0), (0,0,1)" stress="1.6172356816403619e-09 3.025786822137432e-08 -6.779473101979424e-10 3.025786822137432e-08 -5.495506231386994e-08 1.5739158039212398e-08 -6.779473101979424e-10 1.5739158039212398e-08 2.6539409574261152e-11" pbc="F F F"
C        0.10154703      -0.03781427       0.03033484      -0.00239578       0.00636157      -0.00077124
C        1.59457571       0.16063307       0.02620622      -0.00178482      -0.00042498      -0.00115351
H        2.06261038      -0.81050949       0.18950589      -0.00760987      -0.00832070      -0.02620761
F       -0.54571933       1.21640033      -0.04734848       0.00160054       0.00743306      -0.01258407
Cl       0.81444628      -3.37286337      -0.20810176       0.01610297      -0.02087222       0.01168590
H       -0.22712088      -0.63921396      -0.81326592      -0.00211417      -0.00049744       0.00369760
H       -0.23243217      -0.52457056       0.94602507      -0.00532446       0.01558414       0.00320837
H        1.89025693       0.86257419       0.81100948       0.00607637      -0.02152085       0.01574581
H        1.92772757       0.55462964      -0.93695288      -0.00455077       0.02225741       0.00637876
9
Lattice="1.0 0.0 0.0 0.0 1.0 0.0 0.0 0.0 1.0" Properties=species:S:1:pos:R:3:forces:R:3 R1=H R2=H R3=CH3 R4=CH3 leaving_group=Cl nucleophile=Cl rxn=sn2 config=rcc label=H_H_CH3_CH3_Cl_Cl_sn2_rcc conformation=0 reactant_id=H_H_CH3_CH3_Cl_none_-_r product_id=H_H_CH3_CH3_none_Cl_sn2_pc mp2_author_energy=-29302.391748605172 mp2_my_energy=0 hash=59123 address=T id=71 energy=-17372.31618984635 free_energy=-17372.31618984635 cell="(1,0,0), (0,1,0), (0,0,1)" stress="4.389687748321859e-09 3.1986112211928294e-08 -1.50454734923494e-09 3.1986112211928294e-08 -1.0693190423430352e-07 1.4670325722863909e-08 -1.50454734923494e-09 1.4670325722863909e-08 -1.1941740575854835e-09" pbc="F F F"
C        0.10325642      -0.04543990       0.03409074      -0.00245611       0.00979081      -0.00013528
C        1.59601934       0.15845352       0.02937549      -0.00212060       0.00251319      -0.00087385
H        2.06935110      -0.80059130       0.24030940      -0.01040915      -0.01124231      -0.03691162
F       -0.54652831       1.20859139      -0.03092853      -0.00013033       0.00925356      -0.02249494
Cl       0.80205809      -3.33749043      -0.24015959       0.01689652      -0.03967049       0.01128826
H       -0.22772057      -0.63940913      -0.81337737       0.00066279      -0.00519380       0.00864623
H       -0.22758018      -0.54088133       0.94618161      -0.00525089       0.02548375       0.00770822
H        1.88172664       0.89968821       0.78100119       0.00970583      -0.02623337       0.02501724
H        1.93530898       0.50634458      -0.94908049      -0.00689806       0.03529865       0.00775574
9
Lattice="1.0 0.0 0.0 0.0 1.0 0.0 0.0 0.0 1.0" Properties=species:S:1:pos:R:3:forces:R:3 R1=H R2=H R3=CH3 R4=CH3 leaving_group=Cl nucleophile=Cl rxn=sn2 config=rcc label=H_H_CH3_CH3_Cl_Cl_sn2_rcc conformation=0 reactant_id=H_H_CH3_CH3_Cl_none_-_r product_id=H_H_CH3_CH3_none_Cl_sn2_pc mp2_author_energy=-29302.391748605172 mp2_my_energy=0 hash=59123 address=T id=71 energy=-17372.30074078958 free_energy=-17372.30074078958 cell="(1,0,0), (0,1,0), (0,0,1)" stress="9.929645662370593e-09 3.2450064497559094e-08 -3.019405092178935e-09 3.2450064497559094e-08 -1.9901551135788906e-07 6.836785874718804e-09 -3.019405092178935e-09 6.836785874718804e-09 -3.4762546248272414e-09" pbc="F F F"
C        0.10480110      -0.05815209       0.03791724      -0.00241776       0.01658422       0.00111893
C        1.59778611       0.15136822       0.03262125      -0.00289226       0.00944883       0.00017427
H        2.07941313      -0.78682686       0.30658506      -0.02032021      -0.01737993      -0.04863913
F       -0.54493664       1.19779049      -0.00458367      -0.00731100       0.01184378      -0.03546902
Cl       0.79003365      -3.27093850      -0.27618148       0.01755887      -0.07089679       0.00766196
H       -0.23238793      -0.63669633      -0.81698211       0.00778829      -0.01204456       0.01512378
H       -0.22341353      -0.56765761       0.94293893      -0.00264450       0.03879512       0.01446354
H        1.86897702       0.94226021       0.73739182       0.01977793      -0.02772334       0.03742704
H        1.94561860       0.43811805      -0.96229459      -0.00953937       0.05137268       0.00813864
9
Lattice="1.0 0.0 0.0 0.0 1.0 0.0 0.0 0.0 1.0" Properties=species:S:1:pos:R:3:forces:R:3 R1=H R2=H R3=CH3 R4=CH3 leaving_group=Cl nucleophile=Cl rxn=sn2 config=rcc label=H_H_CH3_CH3_Cl_Cl_sn2_rcc conformation=0 reactant_id=H_H_CH3_CH3_Cl_none_-_r product_id=H_H_CH3_CH3_none_Cl_sn2_pc mp2_author_energy=-29302.391748605172 mp2_my_energy=0 hash=59123 address=T id=71 energy=-17372.26846711488 free_energy=-17372.26846711488 cell="(1,0,0), (0,1,0), (0,0,1)" stress="2.0844890444278598e-08 3.563509013068991e-08 -5.697530816246082e-09 3.563509013068991e-08 -4.034362481685272e-07 -2.2073589631644014e-08 -5.697530816246082e-09 -2.2073589631644014e-08 -2.9168302867859314e-09" pbc="F F F"
C        0.10757863      -0.07964405       0.03833958      -0.00453919       0.03842037       0.00359276
C        1.60139428       0.13857077       0.03353356      -0.00756256       0.03036028       0.00344546
H        2.10563515      -0.76081445       0.38300619      -0.06644998      -0.03799783      -0.05824926
F       -0.53536215       1.18262736       0.04361693      -0.03645030       0.01629155      -0.04883034
Cl       0.76863358      -3.17728709      -0.29828708       0.02724447      -0.13261011      -0.00380902
H       -0.24367879      -0.62086209      -0.83431411       0.02692126      -0.02363324       0.02412132
H       -0.22021871      -0.61762028       0.92623567       0.00760009       0.05694126       0.02030529
H        1.84217616       0.98656556       0.67981624       0.06612015      -0.01488464       0.05174243
H        1.95973336       0.35772987      -0.97453453      -0.01288394       0.06711236       0.00768137
9
Lattice="1.0 0.0 0.0 0.0 1.0 0.0 0.0 0.0 1.0" Properties=species:S:1:pos:R:3:forces:R:3 R1=H R2=H R3=CH3 R4=CH3 leaving_group=Cl nucleophile=Cl rxn=sn2 config=rcc label=H_H_CH3_CH3_Cl_Cl_sn2_rcc conformation=0 reactant_id=H_H_CH3_CH3_Cl_none_-_r product_id=H_H_CH3_CH3_none_Cl_sn2_pc mp2_author_energy=-29302.391748605172 mp2_my_energy=0 hash=59123 address=T id=71 energy=-17372.101918296838 free_energy=-17372.101918296838 cell="(1,0,0), (0,1,0), (0,0,1)" stress="1.3727230435418493e-07 -4.756013156782189e-08 1.2170795137804572e-08 -4.756013156782189e-08 -1.8382882118255416e-06 -2.6909952331285655e-07 1.2170795137804572e-08 -2.6909952331285655e-07 9.836710435952637e-08" pbc="F F F"
C        0.11314008      -0.13682889       0.03562240      -0.10342530       0.34497442       0.02738657
C        1.61233714       0.09112475       0.02974263      -0.06609067       0.16970543       0.01323462
H        2.20497885      -0.69701303       0.49154782      -0.34904233      -0.11246737      -0.06560868
F       -0.47981660       1.15998297       0.12362228      -0.15132692      -0.02971296      -0.02212991
Cl       0.73392265      -2.97692952      -0.31043930       0.10668366      -0.55384929      -0.05931964
H       -0.28825789      -0.58093131      -0.86845941       0.11803649      -0.08660560       0.07421722
H       -0.23331558      -0.70333680       0.89787942       0.06731926       0.06859537      -0.05243708
H        1.74046514       1.02010060       0.58569428       0.40189991       0.12346871       0.07225143
H        1.98243773       0.23309682      -0.98779767      -0.02405409       0.07589127       0.01240548
9
Lattice="1.0 0.0 0.0 0.0 1.0 0.0 0.0 0.0 1.0" Properties=species:S:1:pos:R:3:forces:R:3 R1=H R2=H R3=CH3 R4=CH3 leaving_group=Cl nucleophile=Cl rxn=sn2 config=rcc label=H_H_CH3_CH3_Cl_Cl_sn2_rcc conformation=0 reactant_id=H_H_CH3_CH3_Cl_none_-_r product_id=H_H_CH3_CH3_none_Cl_sn2_pc mp2_author_energy=-29302.391748605172 mp2_my_energy=0 hash=59123 address=T id=71 energy=-17371.622659271452 free_energy=-17371.622659271452 cell="(1,0,0), (0,1,0), (0,0,1)" stress="5.659108935613946e-07 -8.095557824908822e-07 -2.6949221343012808e-08 -8.095557824908822e-07 -2.7611514652275676e-06 -6.648949750236574e-07 -2.6949221343012808e-08 -6.648949750236574e-07 2.0562083989288087e-07" pbc="F F F"
C        0.14364047      -0.23922532       0.02900070      -0.82428134       2.23781941       0.17621237
C        1.63174760       0.04059804       0.02568905      -0.14517681       0.30187565       0.01836898
H        2.30738282      -0.66176760       0.51618902      -0.53545307      -0.17083497      -0.06504746
F       -0.43564910       1.16890861       0.13293718       0.19087912      -0.97086672      -0.01899835
Cl       0.70375773      -2.81142459      -0.29696034       0.19072889      -1.18365981      -0.14285466
H       -0.32404459      -0.55373816      -0.89047045       0.23468075      -0.40231222       0.09491202
H       -0.25318890      -0.72441162       0.91323932       0.16633366      -0.13003080      -0.18203294
H        1.62134071       0.98628140       0.55932012       0.72982722       0.28638079       0.11567423
H        1.99090477       0.20404483      -0.99153216      -0.00753841       0.03162867       0.00376581
9
Lattice="1.0 0.0 0.0 0.0 1.0 0.0 0.0 0.0 1.0" Properties=species:S:1:pos:R:3:forces:R:3 R1=H R2=H R3=CH3 R4=CH3 leaving_group=Cl nucleophile=Cl rxn=sn2 config=rcc label=H_H_CH3_CH3_Cl_Cl_sn2_rcc conformation=0 reactant_id=H_H_CH3_CH3_Cl_none_-_r product_id=H_H_CH3_CH3_none_Cl_sn2_pc mp2_author_energy=-29302.391748605172 mp2_my_energy=0 hash=59123 address=T id=71 energy=-17370.852681731267 free_energy=-17370.852681731267 cell="(1,0,0), (0,1,0), (0,0,1)" stress="2.2858381137575846e-07 -1.2076332753319035e-06 -9.006966904482237e-08 -1.2076332753319035e-06 -1.220589671116724e-06 -4.544688914659267e-07 -9.006966904482237e-08 -4.544688914659267e-07 -2.541361857132766e-07" pbc="F F F"
C        0.19800941      -0.38669450       0.01622570      -0.98762754       3.03226991       0.32275352
C        1.64130338       0.02052745       0.02488717      -0.01276797       0.20011676      -0.00293257
H        2.34230366      -0.64997029       0.52141470      -0.31708738      -0.14274415      -0.03162269
F       -0.44847487       1.23295415       0.13498954       0.40534046      -1.37168570      -0.06771181
Cl       0.69145900      -2.73307537      -0.28836409       0.18875661      -1.13094926      -0.14664931
H       -0.33943595      -0.52669444      -0.89606474       0.09418832      -0.47260244      -0.14447386
H       -0.26426364      -0.71629876       0.92579440       0.07788391      -0.31297096      -0.00202601
H        1.57315890       0.96793069       0.55053346       0.52757555       0.20223291       0.08379399
H        1.99183162       0.20058666      -0.99200369       0.02373804      -0.00366708      -0.01113126
9
Lattice="1.0 0.0 0.0 0.0 1.0 0.0 0.0 0.0 1.0" Properties=species:S:1:pos:R:3:forces:R:3 R1=H R2=H R3=CH3 R4=CH3 leaving_group=Cl nucleophile=Cl rxn=sn2 config=rcc label=H_H_CH3_CH3_Cl_Cl_sn2_rcc conformation=0 reactant_id=H_H_CH3_CH3_Cl_none_-_r product_id=H_H_CH3_CH3_none_Cl_sn2_pc mp2_author_energy=-29302.391748605172 mp2_my_energy=0 hash=59123 address=T id=71 energy=-17370.410183776814 free_energy=-17370.410183776814 cell="(1,0,0), (0,1,0), (0,0,1)" stress="-8.554627744289246e-08 -6.801572563300653e-07 -6.553532572942727e-08 -6.801572563300653e-07 -3.1872757763847194e-07 -1.7051281737403012e-07 -6.553532572942727e-08 -1.7051281737403012e-07 -2.92429930117205e-07" pbc="F F F"
C        0.23885503      -0.51202798       0.00350177      -0.37366010       1.21996907       0.13570196
C        1.64182439       0.01227505       0.02483037       0.02047727       0.10862229       0.00298207
H        2.35520526      -0.64385188       0.52337651      -0.14193048      -0.06327732      -0.00658396
F       -0.46540047       1.28961401       0.13825152       0.16355090      -0.59320284      -0.03146576
Cl       0.68380865      -2.68614694      -0.28281006       0.09406040      -0.48678123      -0.07139243
H       -0.34354234      -0.50696228      -0.89026033      -0.02637337      -0.17208543      -0.13162958
H       -0.26730786      -0.70343951       0.92568152      -0.02314315      -0.12734876       0.07494055
H        1.55128969       0.95992239       0.54637671       0.26847694       0.11818487       0.03678373
H        1.99115914       0.19988273      -0.99153556       0.01854159      -0.00408064      -0.00933658
9
Lattice="1.0 0.0 0.0 0.0 1.0 0.0 0.0 0.0 1.0" Properties=species:S:1:pos:R:3:forces:R:3 R1=H R2=H R3=CH3 R4=CH3 leaving_group=Cl nucleophile=Cl rxn=sn2 config=rcc label=H_H_CH3_CH3_Cl_Cl_sn2_rcc conformation=0 reactant_id=H_H_CH3_CH3_Cl_none_-_r product_id=H_H_CH3_CH3_none_Cl_sn2_pc mp2_author_energy=-29302.391748605172 mp2_my_energy=0 hash=59123 address=T id=71 energy=-17370.42330873394 free_energy=-17370.42330873394 cell="(1,0,0), (0,1,0), (0,0,1)" stress="7.203425307593268e-08 4.943011702513556e-07 7.10667871286595e-08 4.943011702513556e-07 -1.43121293858389e-08 2.548764959707381e-08 7.10667871286595e-08 2.548764959707381e-08 2.0885135391833132e-07" pbc="F F F"
C        0.29598823      -0.70652848      -0.01845420       0.18460648      -0.62722717      -0.07161291
C        1.63602542      -0.00801254       0.02371521      -0.01809839      -0.06563829      -0.00454829
H        2.37816189      -0.63188008       0.52719059       0.06846800       0.04434547       0.02746181
F       -0.49260749       1.38832549       0.14637384      -0.09328127       0.31756062       0.03896219
Cl       0.66768860      -2.60425445      -0.27274238      -0.04931601       0.26850646       0.02153287
H       -0.33326466      -0.48007371      -0.86131316       0.03095522       0.09227210       0.09586968
H       -0.25753896      -0.68376535       0.90613045       0.03360340       0.06027075      -0.06146802
H        1.50236613       0.93914339       0.53639435      -0.15933182      -0.05871100      -0.04964535
H        1.98907237       0.19631132      -0.98988225       0.00239439      -0.03137895       0.00344802
9
Lattice="1.0 0.0 0.0 0.0 1.0 0.0 0.0 0.0 1.0" Properties=species:S:1:pos:R:3:forces:R:3 R1=H R2=H R3=CH3 R4=CH3 leaving_group=Cl nucleophile=Cl rxn=sn2 config=rcc label=H_H_CH3_CH3_Cl_Cl_sn2_rcc conformation=0 reactant_id=H_H_CH3_CH3_Cl_none_-_r product_id=H_H_CH3_CH3_none_Cl_sn2_pc mp2_author_energy=-29302.391748605172 mp2_my_energy=0 hash=59123 address=T id=71 energy=-17370.516765194156 free_energy=-17370.516765194156 cell="(1,0,0), (0,1,0), (0,0,1)" stress="2.890687769374287e-08 3.8822764803765355e-07 9.285250861518928e-08 3.8822764803765355e-07 -3.612408612297506e-07 -6.481583068257844e-08 9.285250861518928e-08 -6.481583068257844e-08 6.647090764981258e-08" pbc="F F F"
C        0.32646080      -0.77692647      -0.02595827       0.06327744      -0.14488239      -0.01634701
C        1.64124350      -0.03212739       0.01983218       0.01166423      -0.05010063      -0.00966904
H        2.40471404      -0.61055820       0.54745536       0.04937631       0.04880874       0.05491962
F       -0.51986702       1.48371090       0.16543973      -0.06359899       0.19510999       0.05271236
Cl       0.65087036      -2.59649967      -0.28189722      -0.03263331       0.02043647      -0.02716754
H       -0.31120576      -0.46294790      -0.83794683       0.04376251       0.04033840       0.05023029
H       -0.23220646      -0.68891410       0.89560612       0.05431885      -0.01184558      -0.02112591
H        1.42877508       0.91587237       0.50647426      -0.15277934      -0.04106934      -0.07798943
H        1.99710696       0.17765605      -0.99159288       0.02661231      -0.05679565      -0.00556335
9
Lattice="1.0 0.0 0.0 0.0 1.0 0.0 0.0 0.0 1.0" Properties=species:S:1:pos:R:3:forces:R:3 R1=H R2=H R3=CH3 R4=CH3 leaving_group=Cl nucleophile=Cl rxn=sn2 config=rcc label=H_H_CH3_CH3_Cl_Cl_sn2_rcc conformation=0 reactant_id=H_H_CH3_CH3_Cl_none_-_r product_id=H_H_CH3_CH3_none_Cl_sn2_pc mp2_author_energy=-29302.391748605172 mp2_my_energy=0 hash=59123 address=T id=71 energy=-17370.5753555495 free_energy=-17370.5753555495 cell="(1,0,0), (0,1,0), (0,0,1)" stress="2.253238587169224e-09 1.2080910185749574e-07 7.14979754392296e-08 1.2080910185749574e-07 -1.575510888696706e-07 -1.0950006606830929e-07 7.14979754392296e-08 -1.0950006606830929e-07 -3.712150893753308e-08" pbc="F F F"
C        0.34773938      -0.80796282      -0.03117193       0.01627755      -0.02275154      -0.00448371
C        1.64829689      -0.04763006       0.00911626       0.00603028      -0.01200630      -0.00910929
H        2.40116361      -0.55155078       0.62257795      -0.00478023       0.04660877       0.06165328
F       -0.54065793       1.56785039       0.23107721      -0.02014321       0.06244658       0.05635064
Cl       0.63191317      -2.60641236      -0.33427503      -0.01374386      -0.00594341      -0.04201288
H       -0.29991924      -0.43969623      -0.81330540       0.00823303       0.01958376       0.01889559
H       -0.19271564      -0.72250193       0.90299800       0.03054234      -0.02477029       0.00539725
H        1.34200515       0.92160318       0.40813181      -0.06555451       0.00674979      -0.08130202
H        2.04806613       0.09556621      -0.99773642       0.04313861      -0.06991736      -0.00538886
9
Lattice="1.0 0.0 0.0 0.0 1.0 0.0 0.0 0.0 1.0" Properties=species:S:1:pos:R:3:forces:R:3 R1=H R2=H R3=CH3 R4=CH3 leaving_group=Cl nucleophile=Cl rxn=sn2 config=rcc label=H_H_CH3_CH3_Cl_Cl_sn2_rcc conformation=0 reactant_id=H_H_CH3_CH3_Cl_none_-_r product_id=H_H_CH3_CH3_none_Cl_sn2_pc mp2_author_energy=-29302.391748605172 mp2_my_energy=0 hash=59123 address=T id=71 energy=-17370.604022167878 free_energy=-17370.604022167878 cell="(1,0,0), (0,1,0), (0,0,1)" stress="3.019541649771759e-08 2.5361978085200455e-08 4.567722076234913e-08 2.5361978085200455e-08 -5.77818032453023e-08 -8.902870423258864e-08 4.567722076234913e-08 -8.902870423258864e-08 -3.917418758502856e-08" pbc="F F F"
C        0.35430790      -0.81945647      -0.03455155       0.00436947      -0.00692580      -0.00275808
C        1.64688064      -0.04934423       0.00003286      -0.00051751      -0.00114909      -0.00679337
H        2.37660227      -0.49572795       0.68265321      -0.01765785       0.03848566       0.04218973
F       -0.53020179       1.60308840       0.28676111       0.00454732       0.02152835       0.04162477
Cl       0.62751957      -2.60796022      -0.38041325      -0.00297684      -0.00031937      -0.03117912
H       -0.30553876      -0.42871849      -0.79625666      -0.00371703       0.00810949       0.01079841
H       -0.16895808      -0.75265946       0.91144384       0.01589492      -0.01881804       0.00511325
H        1.29429996       0.93734728       0.32415958      -0.03115384       0.01163964      -0.05966473
H        2.09097982       0.02269672      -0.99641669       0.03121137      -0.05255083       0.00066913
9
Lattice="1.0 0.0 0.0 0.0 1.0 0.0 0.0 0.0 1.0" Properties=species:S:1:pos:R:3:forces:R:3 R1=H R2=H R3=CH3 R4=CH3 leaving_group=Cl nucleophile=Cl rxn=sn2 config=rcc label=H_H_CH3_CH3_Cl_Cl_sn2_rcc conformation=0 reactant_id=H_H_CH3_CH3_Cl_none_-_r product_id=H_H_CH3_CH3_none_Cl_sn2_pc mp2_author_energy=-29302.391748605172 mp2_my_energy=0 hash=59123 address=T id=71 energy=-17370.61906318774 free_energy=-17370.61906318774 cell="(1,0,0), (0,1,0), (0,0,1)" stress="2.7962470061341484e-08 -2.8136380970811344e-09 1.7613234228410374e-08 -2.8136380970811344e-09 -2.677272683815036e-08 -4.3299673154392284e-08 1.7613234228410374e-08 -4.3299673154392284e-08 -1.9822937996184714e-08" pbc="F F F"
C        0.35655413      -0.82865246      -0.03763516       0.00079565      -0.00283608      -0.00128829