9
Lattice="1.0 0.0 0.0 0.0 1.0 0.0 0.0 0.0 1.0" Properties=species:S:1:pos:R:3:forces:R:3 R1=H R2=H R3=CH3 R4=CH3 leaving_group=Cl nucleophile=Cl rxn=sn2 config=rcc label=H_H_CH3_CH3_Cl_Cl_sn2_rcc conformation=0 reactant_id=H_H_CH3_CH3_Cl_none_-_r product_id=H_H_CH3_CH3_none_Cl_sn2_pc mp2_author_energy=-29302.391748605172 mp2_my_energy=0 hash=59123 address=T id=71 energy=-17372.33216497299 free_energy=-17372.33216497299 cell="(1,0,0), (0,1,0), (0,0,1)" pbc="F F F"
C        0.09142836      -0.02057665       0.00018700      -0.00383810       0.00153641      -0.00068481
C        1.58722280       0.14924827      -0.00111085       0.00020147      -0.00237977      -0.00061630
H        2.03195864      -0.84661872      -0.00635447      -0.00043287       0.00066109       0.00360198
F       -0.53491861       1.24651010      -0.01033438       0.00123778      -0.00105707       0.00337249
Cl       0.88543890      -3.39675651       0.00603569      -0.00050197      -0.00038193      -0.00016305
H       -0.24798218      -0.56713807      -0.87777751      -0.00113173       0.00148985       0.00279851
H       -0.24989953      -0.55273097       0.88632969       0.00349898      -0.00246302      -0.00540624
H        1.91405155       0.69490750       0.88785996      -0.00213133       0.00382493      -0.00088743
H        1.90859158       0.70242064      -0.88742268       0.00309776      -0.00123049      -0.00201515
9
Lattice="1.0 0.0 0.0 0.0 1.0 0.0 0.0 0.0 1.0" Properties=species:S:1:pos:R:3:forces:R:3 R1=H R2=H R3=CH3 R4=CH3 leaving_group=Cl nucleophile=Cl rxn=sn2 config=rcc label=H_H_CH3_CH3_Cl_Cl_sn2_rcc conformation=0 reactant_id=H_H_CH3_CH3_Cl_none_-_r product_id=H_H_CH3_CH3_none_Cl_sn2_pc mp2_author_energy=-29302.391748605172 mp2_my_energy=0 hash=59123 address=T id=71 energy=-17372.331036138676 free_energy=-17372.331036138676 cell="(1,0,0), (0,1,0), (0,0,1)" stress="6.246289061622517e-11 -5.369170099906888e-10 -3.7268602358542464e-10 -5.369170099906888e-10 -3.1389766643027155e-10 7.630953839777909e-09 -3.7268602358542464e-10 7.630953839777909e-09 3.2451134472520863e-10" pbc="F F F"
C        0.08905633      -0.01733324       0.01564509       0.00005670      -0.00007551      -0.00100109
C        1.58567354       0.14629765       0.01003522       0.00003729       0.00004976      -0.00073976
H        2.02654657      -0.84987446       0.06303678       0.00009106      -0.00019174      -0.00420534
F       -0.53294891       1.25037829      -0.04270211       0.00000478       0.00015187       0.00222011
Cl       0.89989783      -3.39688292      -0.09129626      -0.00024712       0.00000050       0.00613696
H       -0.25221707      -0.59781719      -0.83884695      -0.00004871       0.00214886      -0.00260323
H       -0.25448462      -0.51203227       0.92323930       0.00014823      -0.00259610      -0.00226920
H        1.91044184       0.74469462       0.86548091       0.00014081      -0.00307546       0.00149866
H        1.91392599       0.64183511      -0.90717952      -0.00018304       0.00358781       0.00096288
9
Lattice="1.0 0.0 0.0 0.0 1.0 0.0 0.0 0.0 1.0" Properties=species:S:1:pos:R:3:forces:R:3 R1=H R2=H R3=CH3 R4=CH3 leaving_group=Cl nucleophile=Cl rxn=sn2 config=rcc label=H_H_CH3_CH3_Cl_Cl_sn2_rcc conformation=0 reactant_id=H_H_CH3_CH3_Cl_none_-_r product_id=H_H_CH3_CH3_none_Cl_sn2_pc mp2_author_energy=-29302.391748605172 mp2_my_energy=0 hash=59123 address=T id=71 energy=-17372.328912548437 free_energy=-17372.328912548437 cell="(1,0,0), (0,1,0), (0,0,1)" stress="-1.809384490454653e-10 5.763001127187055e-09 -2.555196018674883e-10 5.763001127187055e-09 -9.432203681200046e-09 8.922000315326607e-09 -2.555196018674883e-10 8.922000315326607e-09 8.72277313599108e-10" pbc="F F F"
C        0.08438042      -0.01008120       0.03322209      -0.00042198       0.00097429      -0.00103187
C        1.58230237       0.14138256       0.02265387      -0.00033543      -0.00021411      -0.00088305
H        2.01595708      -0.85391029       0.12655436      -0.00119777      -0.00138978      -0.00681657
F       -0.52813989       1.25754645      -0.08761704       0.00058577       0.00176091       0.00126222
Cl       0.92890563      -3.40692514      -0.19580902       0.00311899      -0.00348462       0.00724906
H       -0.25864703      -0.63139721      -0.79076249      -0.00099729       0.00280587      -0.00235547
H       -0.26477105      -0.45346101       0.96559086      -0.00083557      -0.00049714      -0.00182223
H        1.91045424       0.78435250       0.84397080       0.00072083      -0.00542473       0.00296151
H        1.91544973       0.58175893      -0.92039098      -0.00063755       0.00546929       0.00143639
9
Lattice="1.0 0.0 0.0 0.0 1.0 0.0 0.0 0.0 1.0" Properties=species:S:1:pos:R:3:forces:R:3 R1=H R2=H R3=CH3 R4=CH3 leaving_group=Cl nucleophile=Cl rxn=sn2 config=rcc label=H_H_CH3_CH3_Cl_Cl_sn2_rcc conformation=0 reactant_id=H_H_CH3_CH3_Cl_none_-_r product_id=H_H_CH3_CH3_none_Cl_sn2_pc mp2_author_energy=-29302.391748605172 mp2_my_energy=0 hash=59123 address=T id=71 energy=-17372.32607887317 free_energy=-17372.32607887317 cell="(1,0,0), (0,1,0), (0,0,1)" stress="-5.914656972434263e-10 2.106462381574588e-08 5.480095459538178e-10 2.106462381574588e-08 -3.39139180496565e-08 8.383256190400617e-09 5.480095459538178e-10 8.383256190400617e-09 8.935638972818609e-10" pbc="F F F"
C        0.08183923      -0.00864307       0.05061383      -0.00156673       0.00371675      -0.00042238
C        1.58060037       0.13657963       0.03560562      -0.00127811      -0.00061311      -0.00078769
H        2.01201768      -0.85046491       0.20488464      -0.00445435      -0.00476758      -0.01440020
F       -0.52571674       1.25496363      -0.12356700       0.00174771       0.00466406      -0.00479911
Cl       0.94209369      -3.39291226      -0.30376801       0.01122396      -0.01289475       0.00708627
H       -0.26134368      -0.66460488      -0.74529724      -0.00289814       0.00188598       0.00146466
H       -0.26994599      -0.40814047       1.00210335      -0.00312502       0.00825011       0.00089218
H        1.90731713       0.83463583       0.81152695       0.00299871      -0.01186679       0.00791619
H        1.91902982       0.50785208      -0.93468970      -0.00264802       0.01162534       0.00305008
9
Lattice="1.0 0.0 0.0 0.0 1.0 0.0 0.0 0.0 1.0" Properties=species:S:1:pos:R:3:forces:R:3 R1=H R2=H R3=CH3 R4=CH3 leaving_group=Cl nucleophile=Cl rxn=sn2 config=rcc label=H_H_CH3_CH3_Cl_Cl_sn2_rcc conformation=0 reactant_id=H_H_CH3_CH3_Cl_none_-_r product_id=H_H_CH3_CH3_none_Cl_sn2_pc mp2_author_energy=-29302.391748605172 mp2_my_energy=0 hash=59123 address=T id=71 energy=-17372.32222690944 free_energy=-17372.32222690944 cell="(1,0,0), (0,1,0), (0,0,1)" stress="4.658079840642375e-10 2.7730368102656313e-08 2.42225222915308e-10 2.7730368102656313e-08 -5.2732312109827356e-08 1.0453056463394648e-08 2.42225222915308e-10 1.0453056463394648e-08 6.424997006697066e-10" pbc="F F F"
C        0.08425815      -0.01597802       0.05400536      -0.00196600       0.00536404      -0.00012735
C        1.58268652       0.13608360       0.03898581      -0.00173689      -0.00023927      -0.00071637
H        2.02002162      -0.84009518       0.24936295      -0.00637096      -0.00814091      -0.02462723
F       -0.52812282       1.24598124      -0.11595555       0.00196981       0.00548211      -0.01264400
Cl       0.92360200      -3.36149472      -0.33452623       0.01475422      -0.01991855       0.00848497
H       -0.25729830      -0.67086035      -0.74303657      -0.00274885      -0.00159139       0.00570651
H       -0.26475774      -0.42022395       1.00459748      -0.00435355       0.01636576       0.00371936
H        1.90008306       0.86753775       0.78766113       0.00541225      -0.01901699       0.01518200
H        1.92541901       0.46831522      -0.94368194      -0.00496003       0.02169520       0.00502211
9
Lattice="1.0 0.0 0.0 0.0 1.0 0.0 0.0 0.0 1.0" Properties=species:S:1:pos:R:3:forces:R:3 R1=H R2=H R3=CH3 R4=CH3 leaving_group=Cl nucleophile=Cl rxn=sn2 config=rcc label=H_H_CH3_CH3_Cl_Cl_sn2_rcc conformation=0 reactant_id=H_H_CH3_CH3_Cl_none_-_r product_id=H_H_CH3_CH3_none_Cl_sn2_pc mp2_author_energy=-29302.391748605172 mp2_my_energy=0 hash=59123 address=T id=71 energy=-17372.317707935363 free_energy=-17372.317707935363 cell="(1,0,0), (0,1,0), (0,0,1)" stress="2.4269258982383364e-09 3.076393193017774e-08 -3.69488791692239e-10 3.076393193017774e-08 -6.186016992915311e-08 1.2765826687049165e-08 -3.69488791692239e-10 1.2765826687049165e-08 -1.9006477912028376e-10" pbc="F F F"
C        0.08600044      -0.02171997       0.05580025      -0.00204179       0.00624867       0.00009162
C        1.58431684       0.13544401       0.04089381      -0.00205431       0.00010027      -0.00063532
H        2.02651401      -0.83059128       0.28411597      -0.00787270      -0.01205406      -0.03319253
F       -0.52967392       1.23999112      -0.10483181       0.00184253       0.00551835      -0.01997853
Cl       0.90972195      -3.33711934      -0.35395972       0.01641543      -0.02296051       0.00966553
H       -0.25513370      -0.67164989      -0.74520212      -0.00186615      -0.00575971       0.00944311
H       -0.26071933      -0.43411336       1.00374351      -0.00487179       0.02275861       0.00649064
H        1.89371545       0.89263136       0.76704589       0.00747424      -0.02448328       0.02227863
H        1.93114976       0.43639294      -0.95019334      -0.00702546       0.03063165       0.00583686
9
Lattice="1.0 0.0 0.0 0.0 1.0 0.0 0.0 0.0 1.0" Properties=species:S:1:pos:R:3:forces:R:3 R1=H R2=H R3=CH3 R4=CH3 leaving_group=Cl nucleophile=Cl rxn=sn2 config=rcc label=H_H_CH3_CH3_Cl_Cl_sn2_rcc conformation=0 reactant_id=H_H_CH3_CH3_Cl_none_-_r product_id=H_H_CH3_CH3_none_Cl_sn2_pc mp2_author_energy=-29302.391748605172 mp2_my_energy=0 hash=59123 address=T id=71 energy=-17372.308013015616 free_energy=-17372.308013015616 cell="(1,0,0), (0,1,0), (0,0,1)" stress="7.262269861657418e-09 3.331655289655221e-08 -1.6139338259362644e-09 3.331655289655221e-08 -7.207574853372765e-08 1.7381936291423392e-08 -1.6139338259362644e-09 1.7381936291423392e-08 -1.6374411466611608e-09" pbc="F F F"
C        0.08845139      -0.03019891       0.05706336      -0.00188853       0.00725771       0.00040246
C        1.58691024       0.13454351       0.04266827      -0.00253351       0.00065564      -0.00057567
H        2.03686264      -0.81351510       0.33563703      -0.00996009      -0.01935850      -0.04644791
F       -0.53177964       1.23236305      -0.07992911       0.00168638       0.00552871      -0.03214458
Cl       0.88910683      -3.30323183      -0.37552355       0.01792400      -0.02595104       0.01174653
H       -0.25322117      -0.66607483      -0.75462835      -0.00000213      -0.01332448       0.01508705
H       -0.25465788      -0.46181859       0.99763054      -0.00506817       0.03218861       0.01139993
H        1.88323906       0.92928104       0.73328310       0.01024611      -0.03226232       0.03448188
H        1.94098004       0.38791726      -0.95878884      -0.01040404       0.04526567       0.00605030
9
Lattice="1.0 0.0 0.0 0.0 1.0 0.0 0.0 0.0 1.0" Properties=species:S:1:pos:R:3:forces:R:3 R1=H R2=H R3=CH3 R4=CH3 leaving_group=Cl nucleophile=Cl rxn=sn2 config=rcc label=H_H_CH3_CH3_Cl_Cl_sn2_rcc conformation=0 reactant_id=H_H_CH3_CH3_Cl_none_-_r product_id=H_H_CH3_CH3_none_Cl_sn2_pc mp2_author_energy=-29302.391748605172 mp2_my_energy=0 hash=59123 address=T id=71 energy=-17372.290728912612 free_energy=-17372.290728912612 cell="(1,0,0), (0,1,0), (0,0,1)" stress="1.544721542167966e-08 3.512617378683851e-08 -3.186064446536667e-09 3.512617378683851e-08 -8.835052837129814e-08 2.231300423836272e-08 -3.186064446536667e-09 2.231300423836272e-08 -3.822996557897407e-09" pbc="F F F"
C        0.09053590      -0.03872916       0.05757874      -0.00148049       0.00852003       0.00089054
C        1.58995134       0.13376719       0.04407766      -0.00315847       0.00161323      -0.00052037
H        2.04918388      -0.78731986       0.40021529      -0.01221847      -0.03012459      -0.06111491
F       -0.53374865       1.22607783      -0.03946141       0.00170389       0.00657588      -0.04762410
Cl       0.86790253      -3.27355666      -0.39716768       0.01909996      -0.03061411       0.01353884
H       -0.25386680      -0.64935286      -0.77189491       0.00247325      -0.02335039       0.02151242
H       -0.24861704      -0.50045614       0.98483948      -0.00451579       0.04326471       0.01854026
H        1.86990324       0.97380665       0.68606801       0.01280695      -0.03928411       0.05075778
H        1.95464712       0.32502859      -0.96684272      -0.01471082       0.06339935       0.00401954
9
Lattice="1.0 0.0 0.0 0.0 1.0 0.0 0.0 0.0 1.0" Properties=species:S:1:pos:R:3:forces:R:3 R1=H R2=H R3=CH3 R4=CH3 leaving_group=Cl nucleophile=Cl rxn=sn2 config=rcc label=H_H_CH3_CH3_Cl_Cl_sn2_rcc conformation=0 reactant_id=H_H_CH3_CH3_Cl_none_-_r product_id=H_H_CH3_CH3_none_Cl_sn2_pc mp2_author_energy=-29302.391748605172 mp2_my_energy=0 hash=59123 address=T id=71 energy=-17372.262889179874 free_energy=-17372.262889179874 cell="(1,0,0), (0,1,0), (0,0,1)" stress="2.3525440523550474e-08 3.69064051314071e-08 -4.501167346326031e-09 3.69064051314071e-08 -1.4854937598422502e-07 1.936844905655236e-08 -4.501167346326031e-09 1.936844905655236e-08 -7.835224451960716e-09" pbc="F F F"
C        0.09199702      -0.04841070       0.05735301      -0.00121549       0.01193902       0.00171011
C        1.59349526       0.13160240       0.04516855      -0.00385416       0.00502952      -0.00013632
H        2.06311856      -0.75102624       0.47563923      -0.01506309      -0.04166012      -0.07029648
F       -0.53562476       1.21871562       0.01559949       0.00011263       0.01115958      -0.06119348
Cl       0.84690694      -3.23785193      -0.41804427       0.02010334      -0.04983863       0.01183536
H       -0.25726534      -0.62272267      -0.79538745       0.00545635      -0.03165790       0.02613166
H       -0.24369626      -0.54934977       0.96463547      -0.00298797       0.05369178       0.02667296
H        1.85484636       1.02175541       0.62404367       0.01623589      -0.03882417       0.06708346
H        1.97211373       0.24655346      -0.97159526      -0.01878751       0.08016092      -0.00180728
9
Lattice="1.0 0.0 0.0 0.0 1.0 0.0 0.0 0.0 1.0" Properties=species:S:1:pos:R:3:forces:R:3 R1=H R2=H R3=CH3 R4=CH3 leaving_group=Cl nucleophile=Cl rxn=sn2 config=rcc label=H_H_CH3_CH3_Cl_Cl_sn2_rcc conformation=0 reactant_id=H_H_CH3_CH3_Cl_none_-_r product_id=H_H_CH3_CH3_none_Cl_sn2_pc mp2_author_energy=-29302.391748605172 mp2_my_energy=0 hash=59123 address=T id=71 energy=-17372.215068990015 free_energy=-17372.215068990015 cell="(1,0,0), (0,1,0), (0,0,1)" stress="2.0712300698111006e-08 4.192072563450528e-08 -6.5918729681124575e-09 4.192072563450528e-08 -3.255754011492673e-07 -1.2266967950533176e-08 -6.5918729681124575e-09 -1.2266967950533176e-08 -1.3171987582821715e-08" pbc="F F F"
C        0.09333042      -0.06384729       0.05588548      -0.00415929       0.02633430       0.00392912
C        1.59847890       0.12482260       0.04583402      -0.00606328       0.01763245       0.00203235
H        2.08287034      -0.69376055       0.57353637      -0.02835739      -0.05147267      -0.06345669
F       -0.53565418       1.20446457       0.09707357      -0.01285152       0.02235516      -0.06400454
Cl       0.82148945      -3.17321781      -0.43905621       0.02624726      -0.10479423      -0.00040939
H       -0.26513156      -0.58066712      -0.82880907       0.01138183      -0.03430538       0.02706600
H       -0.24005629      -0.61940472       0.93042737       0.00040401       0.05959732       0.03025429
H        1.83311254       1.07568332       0.53146378       0.03937032      -0.01882620       0.07593929
H        1.99745189       0.13519258      -0.96894285      -0.02597195       0.08347924      -0.01135043
9
Lattice="1.0 0.0 0.0 0.0 1.0 0.0 0.0 0.0 1.0" Properties=species:S:1:pos:R:3:forces:R:3 R1=H R2=H R3=CH3 R4=CH3 leaving_group=Cl nucleophile=Cl rxn=sn2 config=rcc label=H_H_CH3_CH3_Cl_Cl_sn2_rcc conformation=0 reactant_id=H_H_CH3_CH3_Cl_none_-_r product_id=H_H_CH3_CH3_none_Cl_sn2_pc mp2_author_energy=-29302.391748605172 mp2_my_energy=0 hash=59123 address=T id=71 energy=-17372.060263855004 free_energy=-17372.060263855004 cell="(1,0,0), (0,1,0), (0,0,1)" stress="1.5251646940426055e-07 -6.011784967573158e-08 3.633240756521205e-09 -6.011784967573158e-08 -1.5206417353241462e-06 -3.069689365548312e-07 3.633240756521205e-09 -3.069689365548312e-07 9.178127500780568e-08" pbc="F F F"
C        0.10212616      -0.12234734       0.04841000      -0.12406179       0.33705322       0.05362233
C        1.61197432       0.08508770       0.04213334      -0.06233415       0.13495680       0.01911352
H        2.14620157      -0.57102062       0.72799881      -0.21583257      -0.05187187      -0.03198388
F       -0.50683734       1.15513726       0.24586090      -0.05259319      -0.04722406      -0.01488035
Cl       0.76458874      -2.94078416      -0.44844708       0.11949100      -0.45922365      -0.08083211
H       -0.29226325      -0.50035997      -0.88915738       0.06752902      -0.06516031       0.06518219
H       -0.24145244      -0.75424950       0.86271348       0.04700164       0.02053135      -0.05941365
H        1.74411513       1.12382727       0.34970045       0.35326679       0.12592868       0.04264082
H        2.05743862      -0.06602505      -0.94180006      -0.13246675       0.00500985       0.00655113
9
Lattice="1.0 0.0 0.0 0.0 1.0 0.0 0.0 0.0 1.0" Properties=species:S:1:pos:R:3:forces:R:3 R1=H R2=H R3=CH3 R4=CH3 leaving_group=Cl nucleophile=Cl rxn=sn2 config=rcc label=H_H_CH3_CH3_Cl_Cl_sn2_rcc conformation=0 reactant_id=H_H_CH3_CH3_Cl_none_-_r product_id=H_H_CH3_CH3_none_Cl_sn2_pc mp2_author_energy=-29302.391748605172 mp2_my_energy=0 hash=59123 address=T id=71 energy=-17371.393590196847 free_energy=-17371.393590196847 cell="(1,0,0), (0,1,0), (0,0,1)" stress="9.51005787971234e-07 -1.3826393507984771e-06 -1.996628126306331e-07 -1.3826393507984771e-06 -2.2875413787477265e-06 -6.27757312246466e-07 -1.996628126306331e-07 -6.27757312246466e-07 2.2048994959094276e-07" pbc="F F F"
C        0.15528100      -0.26669072       0.02584275      -1.04827925       2.72667401       0.44578420
C        1.63863412       0.02729759       0.03396186      -0.18830362       0.28695537       0.03875023
H        2.23812031      -0.54617265       0.74470884      -0.37164396      -0.06941739      -0.05384915
F       -0.48446522       1.17497450       0.25486614       0.56498779      -1.28121404      -0.16324220
Cl       0.71346349      -2.74379924      -0.41582793       0.23476937      -1.19276720      -0.21501212
H       -0.32140429      -0.47097030      -0.91742335       0.15486973      -0.45205140       0.02938360
H       -0.26143545      -0.76434207       0.88735591       0.13274287      -0.29029162      -0.18775606
H        1.59282447       1.07111753       0.32748153       0.74217414       0.32757083       0.07254657
H        2.11487307      -0.07214904      -0.94355331      -0.22131707      -0.05545856       0.03339494
9
Lattice="1.0 0.0 0.0 0.0 1.0 0.0 0.0 0.0 1.0" Properties=species:S:1:pos:R:3:forces:R:3 R1=H R2=H R3=CH3 R4=CH3 leaving_group=Cl nucleophile=Cl rxn=sn2 config=rcc label=H_H_CH3_CH3_Cl_Cl_sn2_rcc conformation=0 reactant_id=H_H_CH3_CH3_Cl_none_-_r product_id=H_H_CH3_CH3_none_Cl_sn2_pc mp2_author_energy=-29302.391748605172 mp2_my_energy=0 hash=59123 address=T id=71 energy=-17370.67786981238 free_energy=-17370.67786981238 cell="(1,0,0), (0,1,0), (0,0,1)" stress="3.897460443134292e-07 -1.3893988307212157e-06 -2.1649725030429044e-07 -1.3893988307212157e-06 -8.221431297539887e-07 -2.553465605321366e-07 -2.1649725030429044e-07 -2.553465605321366e-07 -2.3508616719339225e-07" pbc="F F F"
C        0.20932547      -0.40739358       0.00268082      -0.83095976       2.46924355       0.42045107
C        1.64836263       0.01249112       0.03199046      -0.04264536       0.17336889       0.01983236
H        2.25715939      -0.54229860       0.74776341      -0.19163118      -0.04865821      -0.02948081
F       -0.51364035       1.24104175       0.26363821       0.50197598      -1.15598974      -0.15756316
Cl       0.70136305      -2.68221952      -0.40495863       0.17907659      -0.90253362      -0.16623288
H       -0.32936967      -0.44749872      -0.91883598       0.00810962      -0.37076570      -0.17015700
H       -0.26827579      -0.74948704       0.89704294       0.00832765      -0.32471956       0.02385982
H        1.55452513       1.05433589       0.32328658       0.47578735       0.20858466       0.04429472
H        2.12644164      -0.06970571      -0.94519537      -0.10804090      -0.04853026       0.01499588
9
Lattice="1.0 0.0 0.0 0.0 1.0 0.0 0.0 0.0 1.0" Properties=species:S:1:pos:R:3:forces:R:3 R1=H R2=H R3=CH3 R4=CH3 leaving_group=Cl nucleophile=Cl rxn=sn2 config=rcc label=H_H_CH3_CH3_Cl_Cl_sn2_rcc conformation=0 reactant_id=H_H_CH3_CH3_Cl_none_-_r product_id=H_H_CH3_CH3_none_Cl_sn2_pc mp2_author_energy=-29302.391748605172 mp2_my_energy=0 hash=59123 address=T id=71 energy=-17370.366891686757 free_energy=-17370.366891686757 cell="(1,0,0), (0,1,0), (0,0,1)" stress="6.532845322687749e-08 -3.795045476360358e-07 -5.617700748667861e-08 -3.795045476360358e-07 -1.2885318391893675e-07 -4.9662527388508255e-08 -5.617700748667861e-08 -4.9662527388508255e-08 -1.0480876399762017e-07" pbc="F F F"
C        0.25062356      -0.53011914      -0.01821253      -0.17281381       0.53009720       0.09027555
C        1.65048454       0.00388480       0.03097008      -0.00433347       0.04860546       0.00584710
H        2.26655158      -0.53961633       0.74950781      -0.04931514      -0.00818210      -0.00252965
F       -0.53860964       1.29844192       0.27181659       0.11183741      -0.25466124      -0.02882505
Cl       0.69247168      -2.63731562      -0.39689963       0.04665392      -0.21042678      -0.04151556
H       -0.32979775      -0.42896430      -0.91038509      -0.01495197      -0.07469437      -0.05791562
H       -0.26866459      -0.73343173       0.89581504      -0.01350374      -0.07331061       0.02531800
H        1.53085898       1.04407565       0.32065764       0.12159127       0.05942727       0.00549255
H        2.13197316      -0.06768966      -0.94585745      -0.02516446      -0.01685484       0.00385268
9
Lattice="1.0 0.0 0.0 0.0 1.0 0.0 0.0 0.0 1.0" Properties=species:S:1:pos:R:3:forces:R:3 R1=H R2=H R3=CH3 R4=CH3 leaving_group=Cl nucleophile=Cl rxn=sn2 config=rcc label=H_H_CH3_CH3_Cl_Cl_sn2_rcc conformation=0 reactant_id=H_H_CH3_CH3_Cl_none_-_r product_id=H_H_CH3_CH3_none_Cl_sn2_pc mp2_author_energy=-29302.391748605172 mp2_my_energy=0 hash=59123 address=T id=71 energy=-17370.40106024434 free_energy=-17370.40106024434 cell="(1,0,0), (0,1,0), (0,0,1)" stress="-5.520506618313048e-08 5.538665217368245e-07 1.0020690813893375e-07 5.538665217368245e-07 1.2229430992104643e-07 1.6472044997679204e-08 1.0020690813893375e-07 1.6472044997679204e-08 1.8554817982713564e-07" pbc="F F F"
C        0.28568621      -0.64156114      -0.03741069       0.19806636      -0.62939034      -0.10920717
C        1.65027519      -0.00893287       0.02907678      -0.00118661      -0.07229268      -0.01152092
H        2.27771569      -0.53633497       0.75134389       0.06012424       0.02384975       0.01585529
F       -0.56323734       1.35305737       0.27958178      -0.13952337       0.30732942       0.05138011
Cl       0.68082420      -2.58883774      -0.38833267      -0.06564233       0.27475631       0.04474290
H       -0.32296656      -0.41364681      -0.89328830       0.03816517       0.08819317       0.09646329
H       -0.26210393      -0.71775575       0.88555693       0.03752729       0.08733317      -0.05860269
H        1.50061679       1.02904605       0.31709153      -0.17129485      -0.08274425      -0.02860979
H        2.13908126      -0.06576854      -0.94620680       0.04376410       0.00296547      -0.00050100
9
Lattice="1.0 0.0 0.0 0.0 1.0 0.0 0.0 0.0 1.0" Properties=species:S:1:pos:R:3:forces:R:3 R1=H R2=H R3=CH3 R4=CH3 leaving_group=Cl nucleophile=Cl rxn=sn2 config=rcc label=H_H_CH3_CH3_Cl_Cl_sn2_rcc conformation=0 reactant_id=H_H_CH3_CH3_Cl_none_-_r product_id=H_H_CH3_CH3_none_Cl_sn2_pc mp2_author_energy=-29302.391748605172 mp2_my_energy=0 hash=59123 address=T id=71 energy=-17370.530800426062 free_energy=-17370.530800426062 cell="(1,0,0), (0,1,0), (0,0,1)" stress="8.406112579802384e-09 6.56531443238184e-07 1.2373863315565375e-07 6.56531443238184e-07 -3.7402633707141803e-07 -6.963621559598137e-08 1.2373863315565375e-07 -6.963621559598137e-08 1.76470014389501e-07" pbc="F F F"
C        0.31839638      -0.72946255      -0.05199053       0.13861784      -0.37235889      -0.06274370
C        1.65299334      -0.02989661       0.02547991       0.01148713      -0.08866904      -0.01619108
H        2.29783646      -0.52656921       0.75552423       0.08210105       0.04651032       0.02288402
F       -0.59083743       1.42912305       0.28954674      -0.11726287       0.32099458       0.05008822
Cl       0.66267943      -2.56456062      -0.38567649      -0.07665622       0.10379566       0.00819207
H       -0.30479650      -0.40040440      -0.86962816       0.07653921       0.05725935       0.09990125
H       -0.24348318      -0.70681360       0.87072711       0.07926049       0.04572521      -0.06356430
H        1.43974341       0.99978400       0.30952049      -0.25833743      -0.12188650      -0.04032320
H        2.15335959      -0.06193447      -0.94609085       0.06425080       0.00862930       0.00175672
9
Lattice="1.0 0.0 0.0 0.0 1.0 0.0 0.0 0.0 1.0" Properties=species:S:1:pos:R:3:forces:R:3 R1=H R2=H R3=CH3 R4=CH3 leaving_group=Cl nucleophile=Cl rxn=sn2 config=rcc label=H_H_CH3_CH3_Cl_Cl_sn2_rcc conformation=0 reactant_id=H_H_CH3_CH3_Cl_none_-_r product_id=H_H_CH3_CH3_none_Cl_sn2_pc mp2_author_energy=-29302.391748605172 mp2_my_energy=0 hash=59123 address=T id=71 energy=-17370.589113008034 free_energy=-17370.589113008034 cell="(1,0,0), (0,1,0), (0,0,1)" stress="1.0334304843388364e-07 2.435360356289538e-07 5.0559499163157266e-08 2.435360356289538e-07 -4.26924232436694e-07 -8.113253443550516e-08 5.0559499163157266e-08 -8.113253443550516e-08 3.2868603331159075e-08" pbc="F F F"
C        0.33933695      -0.77271870      -0.05826426       0.05051492      -0.10418533      -0.01610635
C        1.65637846      -0.04556667       0.02258922       0.00813990      -0.03766304      -0.00799595
H        2.31466153      -0.50734927       0.76412145       0.03750492       0.05097241       0.02520197
F       -0.59759131       1.49983887       0.29830380      -0.01656820       0.16945300       0.02878057
Cl       0.64195263      -2.57370964      -0.39334715      -0.04969027      -0.02136295      -0.02079870
H       -0.28630633      -0.39511738      -0.85412101       0.04418245       0.01334463       0.03684841
H       -0.22150046      -0.71131795       0.86473001       0.05337740      -0.01090168      -0.01524904
H        1.37142039       0.97208271       0.29776788      -0.16531886      -0.06502844      -0.03585477
H        2.16753965      -0.05687638      -0.94436748       0.03785775       0.00537139       0.00517385
9
Lattice="1.0 0.0 0.0 0.0 1.0 0.0 0.0 0.0 1.0" Properties=species:S:1:pos:R:3:forces:R:3 R1=H R2=H R3=CH3 R4=CH3 leaving_group=Cl nucleophile=Cl rxn=sn2 config=rcc label=H_H_CH3_CH3_Cl_Cl_sn2_rcc conformation=0 reactant_id=H_H_CH3_CH3_Cl_none_-_r product_id=H_H_CH3_CH3_none_Cl_sn2_pc mp2_author_energy=-29302.391748605172 mp2_my_energy=0 hash=59123 address=T id=71 energy=-17370.610280983114 free_energy=-17370.610280983114 cell="(1,0,0), (0,1,0), (0,0,1)" stress="1.2076886704752337e-07 1.894151491813048e-08 9.62866420760154e-09 1.894151491813048e-08 -2.2984636949753627e-07 -5.6565300685027725e-08 9.62866420760154e-09 -5.6565300685027725e-08 -1.1241540921543254e-08" pbc="F F F"
C        0.35049178      -0.79755082      -0.06064041       0.01447290      -0.03185357      -0.00426063
C        1.65521732      -0.05207480       0.02140011      -0.00142741      -0.00827351      -0.00275753
H        2.31911511      -0.48110067       0.77781183       0.00282409       0.03812234       0.02141293
F       -0.57682691       1.55478961       0.30445541       0.02645204       0.06969699       0.01637100
Cl       0.62760249      -2.58844112      -0.40886150      -0.01855242      -0.01876235      -0.02099359
H       -0.27802900      -0.39790168      -0.84393053       0.01072113      -0.00371635       0.01171738
H       -0.20433275      -0.73048052       0.86631766       0.02232933      -0.02370599       0.00078141
H        1.31644440       0.95687580       0.28149108      -0.07169652      -0.01823657      -0.02785560
H        2.17620906      -0.05485021      -0.94063120       0.01487685      -0.00327098       0.00558464
9
Lattice="1.0 0.0 0.0 0.0 1.0 0.0 0.0 0.0 1.0" Properties=species:S:1:pos:R:3:forces:R:3 R1=H R2=H R3=CH3 R4=CH3 leaving_group=Cl nucleophile=Cl rxn=sn2 config=rcc label=H_H_CH3_CH3_Cl_Cl_sn2_rcc conformation=0 reactant_id=H_H_CH3_CH3_Cl_none_-_r product_id=H_H_CH3_CH3_none_Cl_sn2_pc mp2_author_energy=-29302.391748605172 mp2_my_energy=0 hash=59123 address=T id=71 energy=-17370.620296994606 free_energy=-17370.620296994606 cell="(1,0,0), (0,1,0), (0,0,1)" stress="5.4075396925214015e-08 -1.3199064267423401e-08 3.2342304012432645e-09 -1.3199064267423401e-08 -6.461549018533067e-08 -2.5512216754615564e-08 3.2342304012432645e-09 -2.5512216754615564e-08 -9.587277474287229e-09" pbc="F F F"
C        0.35543435      -0.81844561      -0.06045331       0.00164702      -0.00668092      -0.00105444