9
Lattice="1.0 0.0 0.0 0.0 1.0 0.0 0.0 0.0 1.0" Properties=species:S:1:pos:R:3:forces:R:3 R1=H R2=H R3=CH3 R4=CH3 leaving_group=Cl nucleophile=Cl rxn=sn2 config=rcc label=H_H_CH3_CH3_Cl_Cl_sn2_rcc conformation=0 reactant_id=H_H_CH3_CH3_Cl_none_-_r product_id=H_H_CH3_CH3_none_Cl_sn2_pc mp2_author_energy=-29302.391748605172 mp2_my_energy=0 hash=59123 address=T id=71 energy=-17372.33216497299 free_energy=-17372.33216497299 cell="(1,0,0), (0,1,0), (0,0,1)" pbc="F F F"
C        0.09142836      -0.02057665       0.00018700      -0.00383810       0.00153641      -0.00068481
C        1.58722280       0.14924827      -0.00111085       0.00020147      -0.00237977      -0.00061630
H        2.03195864      -0.84661872      -0.00635447      -0.00043287       0.00066109       0.00360198
F       -0.53491861       1.24651010      -0.01033438       0.00123778      -0.00105707       0.00337249
Cl       0.88543890      -3.39675651       0.00603569      -0.00050197      -0.00038193      -0.00016305
H       -0.24798218      -0.56713807      -0.87777751      -0.00113173       0.00148985       0.00279851
H       -0.24989953      -0.55273097       0.88632969       0.00349898      -0.00246302      -0.00540624
H        1.91405155       0.69490750       0.88785996      -0.00213133       0.00382493      -0.00088743
H        1.90859158       0.70242064      -0.88742268       0.00309776      -0.00123049      -0.00201515
9
Lattice="1.0 0.0 0.0 0.0 1.0 0.0 0.0 0.0 1.0" Properties=species:S:1:pos:R:3:forces:R:3 R1=H R2=H R3=CH3 R4=CH3 leaving_group=Cl nucleophile=Cl rxn=sn2 config=rcc label=H_H_CH3_CH3_Cl_Cl_sn2_rcc conformation=0 reactant_id=H_H_CH3_CH3_Cl_none_-_r product_id=H_H_CH3_CH3_none_Cl_sn2_pc mp2_author_energy=-29302.391748605172 mp2_my_energy=0 hash=59123 address=T id=71 energy=-17372.33154418215 free_energy=-17372.33154418215 cell="(1,0,0), (0,1,0), (0,0,1)" stress="4.8617758222201335e-11 4.7542939475065214e-11 -3.300978928696102e-10 4.7542939475065214e-11 1.3039795580489812e-09 7.425285520663796e-09 -3.300978928696102e-10 7.425285520663796e-09 2.4630906030256085e-10" pbc="F F F"
C        0.08698493      -0.01364833       0.01567435       0.00000494      -0.00007382      -0.00096927
C        1.58424991       0.14476121       0.01038906       0.00000354      -0.00008949      -0.00074345
H        2.02190543      -0.85298666       0.06121129      -0.00008634      -0.00040330      -0.00414212
F       -0.53017736       1.25648175      -0.04298169       0.00002823       0.00020526       0.00212842
Cl       0.91331181      -3.40784069      -0.09019407       0.00006967       0.00063260       0.00595336
H       -0.25564190      -0.59295447      -0.83934182      -0.00012867       0.00206016      -0.00248131
H       -0.25963863      -0.50628625       0.92309284       0.00008547      -0.00249184      -0.00214059
H        1.91184942       0.74119058       0.86609368       0.00016274      -0.00319781       0.00148915
H        1.91304790       0.64054845      -0.90653118      -0.00013959       0.00335824       0.00090580
9
Lattice="1.0 0.0 0.0 0.0 1.0 0.0 0.0 0.0 1.0" Properties=species:S:1:pos:R:3:forces:R:3 R1=H R2=H R3=CH3 R4=CH3 leaving_group=Cl nucleophile=Cl rxn=sn2 config=rcc label=H_H_CH3_CH3_Cl_Cl_sn2_rcc conformation=0 reactant_id=H_H_CH3_CH3_Cl_none_-_r product_id=H_H_CH3_CH3_none_Cl_sn2_pc mp2_author_energy=-29302.391748605172 mp2_my_energy=0 hash=59123 address=T id=71 energy=-17372.329661381853 free_energy=-17372.329661381853 cell="(1,0,0), (0,1,0), (0,0,1)" stress="-5.807455945925767e-10 1.5540955101307042e-08 9.305579958440274e-11 1.5540955101307042e-08 -1.033151087396178e-08 7.0972059855588775e-09 9.305579958440274e-11 7.0972059855588775e-09 2.0445631407346854e-10" pbc="F F F"
C        0.07973530      -0.00134016       0.03777666      -0.00118813       0.00211012      -0.00039785
C        1.57897628       0.13805472       0.02653780      -0.00093382      -0.00127888      -0.00067453
H        2.00581096      -0.85905031       0.14171888      -0.00337845      -0.00374260      -0.00909844
F       -0.52180870       1.27005232      -0.09807646       0.00158236       0.00316579      -0.00262218
Cl       0.95953626      -3.43393403      -0.22043264       0.00846519      -0.00388070       0.00539785
H       -0.26713226      -0.62914791      -0.78050108      -0.00247928       0.00157298       0.00043514
H       -0.27602864      -0.42896458       0.97477927      -0.00234646       0.00454797       0.00024033
H        1.91237362       0.79036771       0.83829619       0.00173321      -0.00865103       0.00470309
H        1.91442868       0.56322783      -0.92268618      -0.00145462       0.00615635       0.00201658
9
Lattice="1.0 0.0 0.0 0.0 1.0 0.0 0.0 0.0 1.0" Properties=species:S:1:pos:R:3:forces:R:3 R1=H R2=H R3=CH3 R4=CH3 leaving_group=Cl nucleophile=Cl rxn=sn2 config=rcc label=H_H_CH3_CH3_Cl_Cl_sn2_rcc conformation=0 reactant_id=H_H_CH3_CH3_Cl_none_-_r product_id=H_H_CH3_CH3_none_Cl_sn2_pc mp2_author_energy=-29302.391748605172 mp2_my_energy=0 hash=59123 address=T id=71 energy=-17372.32236752042 free_energy=-17372.32236752042 cell="(1,0,0), (0,1,0), (0,0,1)" stress="1.8425245229153776e-09 3.4432656825668855e-08 2.3141194088331318e-10 3.4432656825668855e-08 -4.4472343032135176e-08 1.498820366062106e-08 2.3141194088331318e-10 1.498820366062106e-08 -2.1169573371548914e-10" pbc="F F F"
C        0.08322441      -0.00912045       0.05051634      -0.00252761       0.00576839      -0.00005143
C        1.58190311       0.14095988       0.03817690      -0.00218221      -0.00155119      -0.00115088
H        2.01850951      -0.83635043       0.24598223      -0.00780854      -0.01174179      -0.03073435
F       -0.52713759       1.25631718      -0.10031072       0.00357430       0.00684501      -0.01627655
Cl       0.93140583      -3.41272925      -0.31693737       0.01871994      -0.01665541       0.01117918
H       -0.25966120      -0.65028432      -0.75824392      -0.00383174      -0.00309792       0.00700967
H       -0.26883929      -0.42629148       0.99394282      -0.00546794       0.01923225       0.00498931
H        1.90057123       0.87076479       0.78756119       0.00588899      -0.02449171       0.01951204
H        1.92591548       0.47599967      -0.94327502      -0.00636521       0.02569236       0.00552301
9
Lattice="1.0 0.0 0.0 0.0 1.0 0.0 0.0 0.0 1.0" Properties=species:S:1:pos:R:3:forces:R:3 R1=H R2=H R3=CH3 R4=CH3 leaving_group=Cl nucleophile=Cl rxn=sn2 config=rcc label=H_H_CH3_CH3_Cl_Cl_sn2_rcc conformation=0 reactant_id=H_H_CH3_CH3_Cl_none_-_r product_id=H_H_CH3_CH3_none_Cl_sn2_pc mp2_author_energy=-29302.391748605172 mp2_my_energy=0 hash=59123 address=T id=71 energy=-17372.309810818064 free_energy=-17372.309810818064 cell="(1,0,0), (0,1,0), (0,0,1)" stress="8.36222210208788e-09 3.8424643634648624e-08 -5.582632660189716e-10 3.8424643634648624e-08 -8.086198189144247e-08 2.061067224083707e-08 -5.582632660189716e-10 2.061067224083707e-08 -1.115555870591782e-09" pbc="F F F"
C        0.08754733      -0.01982218       0.05226000      -0.00255871       0.00787546       0.00009583
C        1.58576376       0.14298806       0.04154275      -0.00271640       0.00002821      -0.00131688
H        2.03266886      -0.81244865       0.31631197      -0.00930121      -0.01921241      -0.04921521
F       -0.53355413       1.24373114      -0.06925105       0.00454284       0.00870398      -0.02940314
Cl       0.89843441      -3.37879920      -0.34943056       0.02076929      -0.02954871       0.01562040
H       -0.25373969      -0.64492831      -0.76882437      -0.00175394      -0.01016951       0.01250729
H       -0.25906570      -0.46079658       0.98678709      -0.00619082       0.03060387       0.01009603
H        1.88862057       0.92436374       0.74359814       0.00799592      -0.03408455       0.03526585
H        1.93921610       0.41497756      -0.95558151      -0.01078697       0.04580365       0.00634984
9
Lattice="1.0 0.0 0.0 0.0 1.0 0.0 0.0 0.0 1.0" Properties=species:S:1:pos:R:3:forces:R:3 R1=H R2=H R3=CH3 R4=CH3 leaving_group=Cl nucleophile=Cl rxn=sn2 config=rcc label=H_H_CH3_CH3_Cl_Cl_sn2_rcc conformation=0 reactant_id=H_H_CH3_CH3_Cl_none_-_r product_id=H_H_CH3_CH3_none_Cl_sn2_pc mp2_author_energy=-29302.391748605172 mp2_my_energy=0 hash=59123 address=T id=71 energy=-17372.29144731039 free_energy=-17372.29144731039 cell="(1,0,0), (0,1,0), (0,0,1)" stress="1.770075997112488e-08 3.435502742248459e-08 -1.7063464495384987e-09 3.435502742248459e-08 -1.1297498047846982e-07 2.579424164604512e-08 -1.7063464495384987e-09 2.579424164604512e-08 -1.7941407884694352e-09" pbc="F F F"
C        0.09046275      -0.02954471       0.05285549      -0.00181625       0.00891770       0.00000351
C        1.58904889       0.14246262       0.04367552      -0.00291686       0.00231909      -0.00147594
H        2.04410191      -0.78660837       0.38553792      -0.00947871      -0.02781011      -0.06447608
F       -0.53911901       1.23326749      -0.03030782       0.00505006       0.00991970      -0.04119402
Cl       0.87381744      -3.34093591      -0.37451103       0.01839907      -0.03982875       0.01977196
H       -0.25257189      -0.63101414      -0.78418956       0.00188014      -0.01817871       0.01654396
H       -0.25160105      -0.49957083       0.97450479      -0.00499219       0.03866090       0.01517759
H        1.87802140       0.97146309       0.69427894       0.00815955      -0.03875893       0.05137987
H        1.95373106       0.34974635      -0.96443180      -0.01428480       0.06475911       0.00426915
9
Lattice="1.0 0.0 0.0 0.0 1.0 0.0 0.0 0.0 1.0" Properties=species:S:1:pos:R:3:forces:R:3 R1=H R2=H R3=CH3 R4=CH3 leaving_group=Cl nucleophile=Cl rxn=sn2 config=rcc label=H_H_CH3_CH3_Cl_Cl_sn2_rcc conformation=0 reactant_id=H_H_CH3_CH3_Cl_none_-_r product_id=H_H_CH3_CH3_none_Cl_sn2_pc mp2_author_energy=-29302.391748605172 mp2_my_energy=0 hash=59123 address=T id=71 energy=-17372.264505243576 free_energy=-17372.264505243576 cell="(1,0,0), (0,1,0), (0,0,1)" stress="2.7509317187615068e-08 2.54124953594829e-08 -2.876166777396254e-09 2.54124953594829e-08 -1.5179909164606036e-07 2.8644438652218985e-08 -2.876166777396254e-09 2.8644438652218985e-08 -1.2990704547576177e-09" pbc="F F F"
C        0.09217755      -0.03922317       0.05331482      -0.00068827       0.00981527      -0.00015476
C        1.59221546       0.13951811       0.04562274      -0.00285192       0.00546639      -0.00164988
H        2.05455047      -0.75322155       0.46440251      -0.00903649      -0.03698695      -0.07459540
F       -0.54465900       1.22281875       0.01892531       0.00479121       0.01154640      -0.05067254
Cl       0.85469865      -3.29696665      -0.40070390       0.01340852      -0.05174124       0.02255074
H       -0.25583924      -0.60843367      -0.80322853       0.00585416      -0.02552453       0.01902664
H       -0.24637293      -0.54399875       0.95711558      -0.00227616       0.04387724       0.01995874
H        1.86842288       1.01854366       0.63161599       0.00697572      -0.03767559       0.06623431
H        1.97069767       0.27022886      -0.96965206      -0.01617678       0.08122300      -0.00069785
9
Lattice="1.0 0.0 0.0 0.0 1.0 0.0 0.0 0.0 1.0" Properties=species:S:1:pos:R:3:forces:R:3 R1=H R2=H R3=CH3 R4=CH3 leaving_group=Cl nucleophile=Cl rxn=sn2 config=rcc label=H_H_CH3_CH3_Cl_Cl_sn2_rcc conformation=0 reactant_id=H_H_CH3_CH3_Cl_none_-_r product_id=H_H_CH3_CH3_none_Cl_sn2_pc mp2_author_energy=-29302.391748605172 mp2_my_energy=0 hash=59123 address=T id=71 energy=-17372.229898876176 free_energy=-17372.229898876176 cell="(1,0,0), (0,1,0), (0,0,1)" stress="3.020027548552022e-08 1.7553035220923272e-08 -3.5375574873879495e-09 1.7553035220923272e-08 -2.1335098216432522e-07 2.3374577208153314e-08 -3.5375574873879495e-09 2.3374577208153314e-08 -1.3146736576603723e-09" pbc="F F F"
C        0.09255159      -0.04930376       0.05376663      -0.00015598       0.01196029       0.00000455
C        1.59513885       0.13333705       0.04755522      -0.00271260       0.00961288      -0.00144067
H        2.06391417      -0.71154845       0.54923051      -0.00940616      -0.04374462      -0.07302852
F       -0.54963331       1.21119100       0.07620392       0.00219544       0.01484147      -0.05373969
Cl       0.84213194      -3.24268162      -0.42754946       0.00938127      -0.07083987       0.02055068
H       -0.26326933      -0.57862717      -0.82430970       0.00806988      -0.02807537       0.01900568
H       -0.24443742      -0.59206045       0.93503548       0.00053596       0.04549228       0.02305014
H        1.86080273       1.06125789       0.55638009       0.00777402      -0.02832355       0.07362566
H        1.98869231       0.17770110      -0.96890026      -0.01568181       0.08907650      -0.00802782
9
Lattice="1.0 0.0 0.0 0.0 1.0 0.0 0.0 0.0 1.0" Properties=species:S:1:pos:R:3:forces:R:3 R1=H R2=H R3=CH3 R4=CH3 leaving_group=Cl nucleophile=Cl rxn=sn2 config=rcc label=H_H_CH3_CH3_Cl_Cl_sn2_rcc conformation=0 reactant_id=H_H_CH3_CH3_Cl_none_-_r product_id=H_H_CH3_CH3_none_Cl_sn2_pc mp2_author_energy=-29302.391748605172 mp2_my_energy=0 hash=59123 address=T id=71 energy=-17372.18223525191 free_energy=-17372.18223525191 cell="(1,0,0), (0,1,0), (0,0,1)" stress="1.402071310807911e-08 3.1126625110878526e-08 -2.8766339004462873e-09 3.1126625110878526e-08 -3.0032976554394337e-07 -8.216532931253517e-09 -2.8766339004462873e-09 -8.216532931253517e-09 -3.8613612717187395e-09" pbc="F F F"
C        0.09234939      -0.06487817       0.05400832      -0.00272038       0.01948430       0.00211979
C        1.59868430       0.12013213       0.04968948      -0.00468168       0.01622996       0.00123854
H        2.07629719      -0.64878660       0.65418026      -0.02003174      -0.04256851      -0.05073068
F       -0.55249020       1.19186217       0.15360291      -0.01021866       0.02042101      -0.04584091
Cl       0.83136250      -3.14916508      -0.45829471       0.01970832      -0.09766686       0.00375128
H       -0.27550817      -0.53672242      -0.85134872       0.00757197      -0.02151239       0.01735312
H       -0.24573444      -0.65563791       0.90226426       0.00104777       0.04496064       0.02322436
H        1.85019470       1.10235788       0.45078913       0.02962882      -0.00961881       0.06156928
H        2.01073625       0.05010358      -0.95747847      -0.02030441       0.07027066      -0.01268479
9
Lattice="1.0 0.0 0.0 0.0 1.0 0.0 0.0 0.0 1.0" Properties=species:S:1:pos:R:3:forces:R:3 R1=H R2=H R3=CH3 R4=CH3 leaving_group=Cl nucleophile=Cl rxn=sn2 config=rcc label=H_H_CH3_CH3_Cl_Cl_sn2_rcc conformation=0 reactant_id=H_H_CH3_CH3_Cl_none_-_r product_id=H_H_CH3_CH3_none_Cl_sn2_pc mp2_author_energy=-29302.391748605172 mp2_my_energy=0 hash=59123 address=T id=71 energy=-17372.10264283548 free_energy=-17372.10264283548 cell="(1,0,0), (0,1,0), (0,0,1)" stress="2.7177188786386566e-08 3.160090568101319e-09 2.480423752458423e-09 3.160090568101319e-09 -9.549266848116024e-07 -1.8538260415506654e-07 2.480423752458423e-09 -1.8538260415506654e-07 3.344011945760051e-08" pbc="F F F"
C        0.09741435      -0.10345005       0.05008897      -0.03742005       0.13495172       0.02344222
C        1.60805195       0.08728806       0.04747823      -0.03508598       0.08380938       0.01484870
H        2.11636129      -0.55548154       0.76596826      -0.13290148      -0.02665047      -0.01270231
F       -0.53146262       1.15119066       0.25433308      -0.07544697       0.00784531      -0.01156744
Cl       0.79354068      -2.95613379      -0.47042166       0.08049212      -0.28669520      -0.05550997
H       -0.29241728      -0.48650249      -0.88856433       0.03408367      -0.01873958       0.03985958
H       -0.24845790      -0.75028491       0.85219429       0.02464273       0.02945485      -0.02195713
H        1.78968916       1.12560731       0.31617494       0.24155140       0.06508713       0.02278334
H        2.05317189      -0.10296765      -0.92983935      -0.09991543       0.01093687       0.00080302
9
Lattice="1.0 0.0 0.0 0.0 1.0 0.0 0.0 0.0 1.0" Properties=species:S:1:pos:R:3:forces:R:3 R1=H R2=H R3=CH3 R4=CH3 leaving_group=Cl nucleophile=Cl rxn=sn2 config=rcc label=H_H_CH3_CH3_Cl_Cl_sn2_rcc conformation=0 reactant_id=H_H_CH3_CH3_Cl_none_-_r product_id=H_H_CH3_CH3_none_Cl_sn2_pc mp2_author_energy=-29302.391748605172 mp2_my_energy=0 hash=59123 address=T id=71 energy=-17371.760419930608 free_energy=-17371.760419930608 cell="(1,0,0), (0,1,0), (0,0,1)" stress="6.549295553172577e-07 -9.233378260155743e-07 -1.5043027022976854e-07 -9.233378260155743e-07 -2.55650395279287e-06 -5.928466055374427e-07 -1.5043027022976854e-07 -5.928466055374427e-07 3.269464155376063e-07" pbc="F F F"
C        0.12062103      -0.18707376       0.03574952      -0.67041252       1.66935284       0.28821757
C        1.62966938       0.03534971       0.03846445      -0.16405777       0.28358137       0.04412471
H        2.19822776      -0.53509318       0.77780688      -0.37105253      -0.04181467      -0.02041588
F       -0.48479516       1.14574587       0.26522765       0.22115400      -0.78373359      -0.11474366
Cl       0.74387751      -2.77789130      -0.43836493       0.16966314      -1.00003317      -0.18352655
H       -0.31376038      -0.47240908      -0.91386008       0.16763546      -0.27006625       0.13671196
H       -0.26376599      -0.77057534       0.86447689       0.14935546      -0.13596802      -0.22354813
H        1.63999829       1.08644494       0.29668060       0.77333495       0.29415034       0.05268597
H        2.11581905      -0.11523226      -0.92876852      -0.27562018      -0.01546885       0.02049401
9
Lattice="1.0 0.0 0.0 0.0 1.0 0.0 0.0 0.0 1.0" Properties=species:S:1:pos:R:3:forces:R:3 R1=H R2=H R3=CH3 R4=CH3 leaving_group=Cl nucleophile=Cl rxn=sn2 config=rcc label=H_H_CH3_CH3_Cl_Cl_sn2_rcc conformation=0 reactant_id=H_H_CH3_CH3_Cl_none_-_r product_id=H_H_CH3_CH3_none_Cl_sn2_pc mp2_author_energy=-29302.391748605172 mp2_my_energy=0 hash=59123 address=T id=71 energy=-17371.050244445494 free_energy=-17371.050244445494 cell="(1,0,0), (0,1,0), (0,0,1)" stress="7.365455610152771e-07 -1.49842409448477e-06 -2.557616068872273e-07 -1.49842409448477e-06 -1.5498421679455752e-06 -3.6700366493254346e-07 -2.557616068872273e-07 -3.6700366493254346e-07 -4.55708426194204e-09" pbc="F F F"
C        0.17449373      -0.32173389       0.01287418      -1.08395448       2.97784485       0.51822679
C        1.64310105       0.01236668       0.03471961      -0.11505453       0.23959327       0.03922109
H        2.22790498      -0.53130386       0.77979617      -0.26198946      -0.06197842      -0.01866447
F       -0.50267605       1.20888282       0.27488878       0.56781700      -1.37609932      -0.21721195
Cl       0.73022726      -2.69732252      -0.42387001       0.20058185      -1.12901476      -0.20735707
H       -0.32730090      -0.45046788      -0.92497034       0.12771413      -0.45645526      -0.06642464
H       -0.27570415      -0.75967546       0.88222767       0.11990191      -0.39008413      -0.09763086
H        1.57774024       1.06300562       0.29188197       0.63780788       0.24193737       0.04336058
H        2.13810536      -0.11448593      -0.93013558      -0.19282429      -0.04574359       0.00648053
9
Lattice="1.0 0.0 0.0 0.0 1.0 0.0 0.0 0.0 1.0" Properties=species:S:1:pos:R:3:forces:R:3 R1=H R2=H R3=CH3 R4=CH3 leaving_group=Cl nucleophile=Cl rxn=sn2 config=rcc label=H_H_CH3_CH3_Cl_Cl_sn2_rcc conformation=0 reactant_id=H_H_CH3_CH3_Cl_none_-_r product_id=H_H_CH3_CH3_none_Cl_sn2_pc mp2_author_energy=-29302.391748605172 mp2_my_energy=0 hash=59123 address=T id=71 energy=-17370.561596885487 free_energy=-17370.561596885487 cell="(1,0,0), (0,1,0), (0,0,1)" stress="3.419652408656005e-07 -1.1239805622602777e-06 -1.966742618745654e-07 -1.1239805622602777e-06 -4.6911884679650336e-07 -9.12690844711471e-08 -1.966742618745654e-07 -9.12690844711471e-08 -2.590585266401911e-07" pbc="F F F"
C        0.21581262      -0.43477259      -0.00704140      -0.64730148       1.99400945       0.35462494
C        1.64729553       0.00335603       0.03331662      -0.02413043       0.13216048       0.01923993
H        2.23780368      -0.52878965       0.78068673      -0.13965720      -0.04234950      -0.00717684
F       -0.52425834       1.26111242       0.28336282       0.39975712      -0.90377817      -0.14536513
Cl       0.72260850      -2.65440917      -0.41611439       0.14490573      -0.69038201      -0.12925660
H       -0.33213741      -0.43304678      -0.92236939       0.00243439      -0.29577373      -0.15860057
H       -0.28030813      -0.74497954       0.88601871       0.00722073      -0.30177270       0.04403617
H        1.55352206       1.05380618       0.28993992       0.35811296       0.14426928       0.02297561
H        2.14555300      -0.11301132      -0.93038716      -0.10134184      -0.03638310      -0.00047751
9
Lattice="1.0 0.0 0.0 0.0 1.0 0.0 0.0 0.0 1.0" Properties=species:S:1:pos:R:3:forces:R:3 R1=H R2=H R3=CH3 R4=CH3 leaving_group=Cl nucleophile=Cl rxn=sn2 config=rcc label=H_H_CH3_CH3_Cl_Cl_sn2_rcc conformation=0 reactant_id=H_H_CH3_CH3_Cl_none_-_r product_id=H_H_CH3_CH3_none_Cl_sn2_pc mp2_author_energy=-29302.391748605172 mp2_my_energy=0 hash=59123 address=T id=71 energy=-17370.360338756494 free_energy=-17370.360338756494 cell="(1,0,0), (0,1,0), (0,0,1)" stress="5.379984951044163e-08 -2.950236757699758e-07 -4.806898429203383e-08 -2.950236757699758e-07 -3.2187847762291904e-08 -9.791014892153624e-09 -4.806898429203383e-08 -9.791014892153624e-09 -9.152648735462062e-08" pbc="F F F"
C        0.24827577      -0.53476257      -0.02483819      -0.14415429       0.45913143       0.08158099
C        1.64850695      -0.00326948       0.03232455      -0.00050583       0.03287966       0.00445132
H        2.24469674      -0.52643546       0.78126497      -0.03561975      -0.00823890       0.00209687
F       -0.54432886       1.30638885       0.29094977       0.09264183      -0.21754334      -0.03071721
Cl       0.71534557      -2.61975344      -0.40978726       0.04148154      -0.16509928      -0.03362717
H       -0.33227092      -0.41812201      -0.91442116      -0.01208267      -0.05933767      -0.04717606
H       -0.28065605      -0.72992141       0.88377071      -0.01000740      -0.06710043       0.02256448
H        1.53555798       1.04664858       0.28843007       0.09125637       0.03959770       0.00075253
H        2.15076433      -0.11150748      -0.93028102      -0.02300980      -0.01428916       0.00007426
9
Lattice="1.0 0.0 0.0 0.0 1.0 0.0 0.0 0.0 1.0" Properties=species:S:1:pos:R:3:forces:R:3 R1=H R2=H R3=CH3 R4=CH3 leaving_group=Cl nucleophile=Cl rxn=sn2 config=rcc label=H_H_CH3_CH3_Cl_Cl_sn2_rcc conformation=0 reactant_id=H_H_CH3_CH3_Cl_none_-_r product_id=H_H_CH3_CH3_none_Cl_sn2_pc mp2_author_energy=-29302.391748605172 mp2_my_energy=0 hash=59123 address=T id=71 energy=-17370.37474390245 free_energy=-17370.37474390245 cell="(1,0,0), (0,1,0), (0,0,1)" stress="-2.5861221652828823e-08 3.885440101138814e-07 7.690243966079511e-08 3.885440101138814e-07 -2.8775631247328423e-08 -2.98371258178e-08 7.690243966079511e-08 -2.98371258178e-08 1.448148529463904e-07" pbc="F F F"
C        0.27350255      -0.61837856      -0.03987057       0.16406056      -0.54341340      -0.09836140
C        1.64751429      -0.00977707       0.03129751      -0.00641002      -0.04224395      -0.00731442
H        2.25113782      -0.52366549       0.78157556       0.03951866       0.02255491       0.00629420
F       -0.56151393       1.34776116       0.29807877      -0.11222172       0.26799888       0.05251232
Cl       0.70604368      -2.58810361      -0.40384487      -0.06041872       0.20637496       0.03579754
H       -0.32739835      -0.40862507      -0.90354491       0.03144463       0.06332486       0.07058015
H       -0.27619214      -0.71867831       0.87669629       0.02931299       0.07187942      -0.04670243
H        1.51696736       1.03857683       0.28679741      -0.12098417      -0.05095373      -0.01769376
H        2.15583023      -0.10984429      -0.92977275       0.03569779       0.00447806       0.00488780
9
Lattice="1.0 0.0 0.0 0.0 1.0 0.0 0.0 0.0 1.0" Properties=species:S:1:pos:R:3:forces:R:3 R1=H R2=H R3=CH3 R4=CH3 leaving_group=Cl nucleophile=Cl rxn=sn2 config=rcc label=H_H_CH3_CH3_Cl_Cl_sn2_rcc conformation=0 reactant_id=H_H_CH3_CH3_Cl_none_-_r product_id=H_H_CH3_CH3_none_Cl_sn2_pc mp2_author_energy=-29302.391748605172 mp2_my_energy=0 hash=59123 address=T id=71 energy=-17370.483747796563 free_energy=-17370.483747796563 cell="(1,0,0), (0,1,0), (0,0,1)" stress="3.932360788093721e-08 6.722547616808232e-07 1.325537422999816e-07 6.722547616808232e-07 -2.426230108942915e-07 -8.113919344926562e-08 1.325537422999816e-07 -8.113919344926562e-08 2.4801050451364436e-07" pbc="F F F"
C        0.29914694      -0.69867460      -0.05445008       0.19405764      -0.60726078      -0.11104814
C        1.64696330      -0.02119618       0.02928906      -0.00411295      -0.08630740      -0.01588397
H        2.26219152      -0.51866652       0.78267445       0.08118381       0.04228923       0.01247515
F       -0.58071800       1.40010548       0.30725805      -0.14581361       0.39494339       0.07568954
Cl       0.69207739      -2.55740921      -0.39801860      -0.10563914       0.23282903       0.04142876
H       -0.31624111      -0.40146956      -0.88826345       0.08416873       0.05550312       0.11543319
H       -0.26549139      -0.70939188       0.86462133       0.08125157       0.06928746      -0.09199429
H        1.48309999       1.02312100       0.28350072      -0.25630320      -0.11541087      -0.03195137
H        2.16486287      -0.10715295      -0.92919902       0.07120715       0.01412682       0.00585114
9
Lattice="1.0 0.0 0.0 0.0 1.0 0.0 0.0 0.0 1.0" Properties=species:S:1:pos:R:3:forces:R:3 R1=H R2=H R3=CH3 R4=CH3 leaving_group=Cl nucleophile=Cl rxn=sn2 config=rcc label=H_H_CH3_CH3_Cl_Cl_sn2_rcc conformation=0 reactant_id=H_H_CH3_CH3_Cl_none_-_r product_id=H_H_CH3_CH3_none_Cl_sn2_pc mp2_author_energy=-29302.391748605172 mp2_my_energy=0 hash=59123 address=T id=71 energy=-17370.568829913685 free_energy=-17370.568829913685 cell="(1,0,0), (0,1,0), (0,0,1)" stress="5.708093823776164e-08 3.9727040596901786e-07 8.534927815299968e-08 3.9727040596901786e-07 -5.008590892971854e-07 -1.1100528905318902e-07 8.534927815299968e-08 -1.1100528905318902e-07 6.931830916035773e-08" pbc="F F F"
C        0.32451069      -0.75362661      -0.06470579       0.08496840      -0.18382929      -0.03509314
C        1.65141964      -0.03833693       0.02576851       0.01499641      -0.05729589      -0.01253744
H        2.28071714      -0.50535841       0.78825405       0.05957821       0.04868295       0.02243009
F       -0.59866749       1.47195405       0.32106435      -0.06079830       0.23933377       0.05235399
Cl       0.66877525      -2.55585914      -0.39843592      -0.07802307       0.00589494      -0.00358559
H       -0.29631737      -0.39791602      -0.87422138       0.06646574       0.01288738       0.04676131
H       -0.24511691      -0.70705198       0.85291262       0.06846630       0.00738385      -0.03982644
H        1.41902001       0.99585190       0.27553756      -0.21442540      -0.08983460      -0.03325123
H        2.18155054      -0.10039127      -0.92876156       0.05877172       0.01677688       0.00274845
9
Lattice="1.0 0.0 0.0 0.0 1.0 0.0 0.0 0.0 1.0" Properties=species:S:1:pos:R:3:forces:R:3 R1=H R2=H R3=CH3 R4=CH3 leaving_group=Cl nucleophile=Cl rxn=sn2 config=rcc label=H_H_CH3_CH3_Cl_Cl_sn2_rcc conformation=0 reactant_id=H_H_CH3_CH3_Cl_none_-_r product_id=H_H_CH3_CH3_none_Cl_sn2_pc mp2_author_energy=-29302.391748605172 mp2_my_energy=0 hash=59123 address=T id=71 energy=-17370.60292734937 free_energy=-17370.60292734937 cell="(1,0,0), (0,1,0), (0,0,1)" stress="1.0780863059302528e-07 7.965616837241411e-08 2.6773559641862616e-08 7.965616837241411e-08 -3.254075431912072e-07 -7.83665350874857e-08 2.6773559641862616e-08 -7.83665350874857e-08 -8.130803979133887e-09" pbc="F F F"
C        0.34139289      -0.78216549      -0.07019700       0.03114463      -0.05237311      -0.01083045
C        1.65508786      -0.04916743       0.02301231       0.00685874      -0.01988545      -0.00585337
H        2.29311119      -0.48329504       0.79833052       0.02064338       0.04409891       0.02153350
F       -0.59350915       1.52882545       0.33457931       0.00879978       0.10373267       0.03061568
Cl       0.64368946      -2.57362073      -0.40506946      -0.04625312      -0.03229027      -0.01362139
H       -0.27928457      -0.39944732      -0.86839856       0.03126339      -0.00237085       0.01019568
H       -0.22597255      -0.71397021       0.84828943       0.03544911      -0.01262843      -0.00918220
H        1.35533253       0.97339350       0.26380965      -0.11726159      -0.04021982      -0.02714574
H        2.19604384      -0.09128712      -0.92694375       0.02935568       0.01193633       0.00428829
9
Lattice="1.0 0.0 0.0 0.0 1.0 0.0 0.0 0.0 1.0" Properties=species:S:1:pos:R:3:forces:R:3 R1=H R2=H R3=CH3 R4=CH3 leaving_group=Cl nucleophile=Cl rxn=sn2 config=rcc label=H_H_CH3_CH3_Cl_Cl_sn2_rcc conformation=0 reactant_id=H_H_CH3_CH3_Cl_none_-_r product_id=H_H_CH3_CH3_none_Cl_sn2_pc mp2_author_energy=-29302.391748605172 mp2_my_energy=0 hash=59123 address=T id=71 energy=-17370.61896503809 free_energy=-17370.61896503809 cell="(1,0,0), (0,1,0), (0,0,1)" stress="8.889843463106773e-08 -2.3367364810818603e-08 3.077219056238823e-09 -2.3367364810818603e-08 -1.0887504550401373e-07 -3.6443841953739906e-08 3.077219056238823e-09 -3.6443841953739906e-08 -1.224490321639767e-08" pbc="F F F"
C        0.35211482      -0.80804756      -0.07473418       0.00556708      -0.01312071      -0.00305181