9
Lattice="1.0 0.0 0.0 0.0 1.0 0.0 0.0 0.0 1.0" Properties=species:S:1:pos:R:3:forces:R:3 R1=H R2=H R3=CH3 R4=CH3 leaving_group=Cl nucleophile=Cl rxn=sn2 config=rcc label=H_H_CH3_CH3_Cl_Cl_sn2_rcc conformation=0 reactant_id=H_H_CH3_CH3_Cl_none_-_r product_id=H_H_CH3_CH3_none_Cl_sn2_pc mp2_author_energy=-29302.391748605172 mp2_my_energy=0 hash=59123 address=T id=71 energy=-17372.33216497299 free_energy=-17372.33216497299 cell="(1,0,0), (0,1,0), (0,0,1)" pbc="F F F"
C        0.09142836      -0.02057665       0.00018700      -0.00383810       0.00153641      -0.00068481
C        1.58722280       0.14924827      -0.00111085       0.00020147      -0.00237977      -0.00061630
H        2.03195864      -0.84661872      -0.00635447      -0.00043287       0.00066109       0.00360198
F       -0.53491861       1.24651010      -0.01033438       0.00123778      -0.00105707       0.00337249
Cl       0.88543890      -3.39675651       0.00603569      -0.00050197      -0.00038193      -0.00016305
H       -0.24798218      -0.56713807      -0.87777751      -0.00113173       0.00148985       0.00279851
H       -0.24989953      -0.55273097       0.88632969       0.00349898      -0.00246302      -0.00540624
H        1.91405155       0.69490750       0.88785996      -0.00213133       0.00382493      -0.00088743
H        1.90859158       0.70242064      -0.88742268       0.00309776      -0.00123049      -0.00201515
9
Lattice="1.0 0.0 0.0 0.0 1.0 0.0 0.0 0.0 1.0" Properties=species:S:1:pos:R:3:forces:R:3 R1=H R2=H R3=CH3 R4=CH3 leaving_group=Cl nucleophile=Cl rxn=sn2 config=rcc label=H_H_CH3_CH3_Cl_Cl_sn2_rcc conformation=0 reactant_id=H_H_CH3_CH3_Cl_none_-_r product_id=H_H_CH3_CH3_none_Cl_sn2_pc mp2_author_energy=-29302.391748605172 mp2_my_energy=0 hash=59123 address=T id=71 energy=-17372.33121214462 free_energy=-17372.33121214462 cell="(1,0,0), (0,1,0), (0,0,1)" stress="-8.819362033211672e-11 2.9355576485192683e-09 -4.752020178063657e-10 2.9355576485192683e-09 -8.493877289285678e-10 9.437638337045711e-09 -4.752020178063657e-10 9.437638337045711e-09 2.945822937464535e-10" pbc="F F F"
C        0.09027876      -0.01908161       0.01477340      -0.00021865       0.00032002      -0.00118405
C        1.58660803       0.14820995       0.00956366      -0.00016019      -0.00032188      -0.00089013
H        2.02995710      -0.84661156       0.06659894      -0.00063467      -0.00095741      -0.00578589
F       -0.53469107       1.24758715      -0.03487462       0.00032351       0.00080660       0.00206533
Cl       0.89125410      -3.39736939      -0.08768579       0.00161735      -0.00021225       0.00750177
H       -0.25031609      -0.59447330      -0.84348242      -0.00058809       0.00278268      -0.00283509
H       -0.25161732      -0.52069206       0.91903272      -0.00042286      -0.00205032      -0.00251862
H        1.90911478       0.75100962       0.86267637       0.00045155      -0.00483669       0.00225111
H        1.91530322       0.64068679      -0.90918980      -0.00036795       0.00446926       0.00139558
9
Lattice="1.0 0.0 0.0 0.0 1.0 0.0 0.0 0.0 1.0" Properties=species:S:1:pos:R:3:forces:R:3 R1=H R2=H R3=CH3 R4=CH3 leaving_group=Cl nucleophile=Cl rxn=sn2 config=rcc label=H_H_CH3_CH3_Cl_Cl_sn2_rcc conformation=0 reactant_id=H_H_CH3_CH3_Cl_none_-_r product_id=H_H_CH3_CH3_none_Cl_sn2_pc mp2_author_energy=-29302.391748605172 mp2_my_energy=0 hash=59123 address=T id=71 energy=-17372.328086906884 free_energy=-17372.328086906884 cell="(1,0,0), (0,1,0), (0,0,1)" stress="-4.2985065428991657e-10 1.4509744495829365e-08 -4.268471337309087e-10 1.4509744495829365e-08 -1.0826987159241245e-08 1.4477540238963436e-08 -4.268471337309087e-10 1.4477540238963436e-08 1.1106280027548745e-09" pbc="F F F"
C        0.08797006      -0.01517023       0.03218043      -0.00109732       0.00201829      -0.00151905
C        1.58501348       0.14640208       0.02212462      -0.00083070      -0.00114162      -0.00133114
H        2.02582377      -0.84405289       0.14061782      -0.00317791      -0.00393030      -0.01217150
F       -0.53288148       1.25006866      -0.07101682       0.00128918       0.00337626       0.00032424
Cl       0.90436760      -3.40607798      -0.19405999       0.00785884      -0.00401477       0.01141058
H       -0.25289844      -0.62703513      -0.79977602      -0.00235802       0.00413884      -0.00279836
H       -0.25653379      -0.47378615       0.95866968      -0.00214458       0.00119839      -0.00230564
H        1.90580556       0.80387063       0.83465945       0.00186532      -0.01064267       0.00584158
H        1.91922475       0.57504659      -0.92598673      -0.00140482       0.00899758       0.00254928
9
Lattice="1.0 0.0 0.0 0.0 1.0 0.0 0.0 0.0 1.0" Properties=species:S:1:pos:R:3:forces:R:3 R1=H R2=H R3=CH3 R4=CH3 leaving_group=Cl nucleophile=Cl rxn=sn2 config=rcc label=H_H_CH3_CH3_Cl_Cl_sn2_rcc conformation=0 reactant_id=H_H_CH3_CH3_Cl_none_-_r product_id=H_H_CH3_CH3_none_Cl_sn2_pc mp2_author_energy=-29302.391748605172 mp2_my_energy=0 hash=59123 address=T id=71 energy=-17372.32209406519 free_energy=-17372.32209406519 cell="(1,0,0), (0,1,0), (0,0,1)" stress="4.3365784254660106e-10 2.8767327544667295e-08 -1.941463305930188e-10 2.8767327544667295e-08 -3.3871087146929006e-08 1.7943873753745487e-08 -1.941463305930188e-10 1.7943873753745487e-08 1.3309532646514288e-09" pbc="F F F"
C        0.09001220      -0.02000254       0.04660747      -0.00211039       0.00476830      -0.00112523
C        1.58670592       0.14822634       0.03312005      -0.00172935      -0.00145221      -0.00138153
H        2.03450340      -0.82702523       0.22591503      -0.00675207      -0.00952014      -0.02507258
F       -0.53541417       1.23999773      -0.08749411       0.00209427       0.00593403      -0.00884152
Cl       0.88681404      -3.39385685      -0.29030737       0.01553414      -0.01280925       0.01383760
H       -0.24784122      -0.65512701      -0.76816748      -0.00346418       0.00133181       0.00177120
H       -0.25230150      -0.45485026       0.98569703      -0.00441712       0.01159580       0.00121887
H        1.89656583       0.86893939       0.79474867       0.00524931      -0.02029989       0.01489059
H        1.92684701       0.50296401      -0.94270684      -0.00440461       0.02045154       0.00470261
9
Lattice="1.0 0.0 0.0 0.0 1.0 0.0 0.0 0.0 1.0" Properties=species:S:1:pos:R:3:forces:R:3 R1=H R2=H R3=CH3 R4=CH3 leaving_group=Cl nucleophile=Cl rxn=sn2 config=rcc label=H_H_CH3_CH3_Cl_Cl_sn2_rcc conformation=0 reactant_id=H_H_CH3_CH3_Cl_none_-_r product_id=H_H_CH3_CH3_none_Cl_sn2_pc mp2_author_energy=-29302.391748605172 mp2_my_energy=0 hash=59123 address=T id=71 energy=-17372.312813288572 free_energy=-17372.312813288572 cell="(1,0,0), (0,1,0), (0,0,1)" stress="4.1637713834564225e-09 3.005022919859307e-08 -1.3809431655986752e-09 3.005022919859307e-08 -5.242655853018635e-08 2.183315643365528e-08 -1.3809431655986752e-09 2.183315643365528e-08 7.540119380637543e-10" pbc="F F F"
C        0.09379274      -0.02939991       0.05193320      -0.00194394       0.00603492      -0.00076666
C        1.58996500       0.15041629       0.03793616      -0.00204814      -0.00040733      -0.00115426
H        2.04852321      -0.80409179       0.29619937      -0.00818418      -0.01575897      -0.04030646
F       -0.53882416       1.22844855      -0.07049044       0.00179078       0.00571591      -0.02189265
Cl       0.85744041      -3.36772404      -0.33846079       0.01635030      -0.01948600       0.01599597
H       -0.24245481      -0.66004830      -0.76622298      -0.00126380      -0.00640237       0.00800671
H       -0.24388316      -0.47405382       0.98814365      -0.00503567       0.02237386       0.00620508
H        1.88369757       0.92286102       0.75375332       0.00841841      -0.02907072       0.02768302
H        1.93763471       0.44285760      -0.95537905      -0.00808377       0.03700069       0.00622924
9
Lattice="1.0 0.0 0.0 0.0 1.0 0.0 0.0 0.0 1.0" Properties=species:S:1:pos:R:3:forces:R:3 R1=H R2=H R3=CH3 R4=CH3 leaving_group=Cl nucleophile=Cl rxn=sn2 config=rcc label=H_H_CH3_CH3_Cl_Cl_sn2_rcc conformation=0 reactant_id=H_H_CH3_CH3_Cl_none_-_r product_id=H_H_CH3_CH3_none_Cl_sn2_pc mp2_author_energy=-29302.391748605172 mp2_my_energy=0 hash=59123 address=T id=71 energy=-17372.29931274703 free_energy=-17372.29931274703 cell="(1,0,0), (0,1,0), (0,0,1)" stress="9.982104128624386e-09 2.442526451070102e-08 -3.323611396241845e-09 2.442526451070102e-08 -7.427190384823811e-08 2.5402394458660808e-08 -3.323611396241845e-09 2.5402394458660808e-08 -7.690902491429633e-11" pbc="F F F"
C        0.09632647      -0.03839427       0.05438899      -0.00108341       0.00672546      -0.00056994
C        1.59280777       0.15012728       0.04042304      -0.00216491       0.00153864      -0.00092864
H        2.06051816      -0.78003552       0.36176517      -0.00840345      -0.02260822      -0.05400935
F       -0.54079146       1.22009189      -0.04014723       0.00116459       0.00514334      -0.03504887
Cl       0.83509895      -3.33618597      -0.37001769       0.01352330      -0.02683249       0.01782594
H       -0.24153054      -0.65274264      -0.77480919       0.00230921      -0.01543140       0.01363181
H       -0.23706023      -0.50408063       0.98168193      -0.00424800       0.03167592       0.01162525
H        1.87067034       0.96887718       0.70928858       0.01037441      -0.03480821       0.04172334
H        1.94985205       0.38160826      -0.96516114      -0.01147175       0.05459696       0.00575046
9
Lattice="1.0 0.0 0.0 0.0 1.0 0.0 0.0 0.0 1.0" Properties=species:S:1:pos:R:3:forces:R:3 R1=H R2=H R3=CH3 R4=CH3 leaving_group=Cl nucleophile=Cl rxn=sn2 config=rcc label=H_H_CH3_CH3_Cl_Cl_sn2_rcc conformation=0 reactant_id=H_H_CH3_CH3_Cl_none_-_r product_id=H_H_CH3_CH3_none_Cl_sn2_pc mp2_author_energy=-29302.391748605172 mp2_my_energy=0 hash=59123 address=T id=71 energy=-17372.280153230156 free_energy=-17372.280153230156 cell="(1,0,0), (0,1,0), (0,0,1)" stress="1.702941213226647e-08 1.66122702510125e-08 -5.3515157110406865e-09 1.66122702510125e-08 -1.0446702141876515e-07 2.7318145983239614e-08 -5.3515157110406865e-09 2.7318145983239614e-08 5.462455548782324e-11" pbc="F F F"
C        0.09739709      -0.04631805       0.05560387      -0.00001124       0.00759652      -0.00038798
C        1.59527334       0.14787435       0.04181054      -0.00222900       0.00401914      -0.00077510
H        2.07045896      -0.75262978       0.42867298      -0.00828891      -0.02953365      -0.06502787
F       -0.54178952       1.21428050       0.00115890       0.00066363       0.00551948      -0.04721801
Cl       0.82018162      -3.30361926      -0.39445641       0.00966494      -0.03723679       0.01871999
H       -0.24493252      -0.63482592      -0.78990025       0.00584787      -0.02401296       0.01836344
H       -0.23239397      -0.54064684       0.96884442      -0.00257105       0.03991142       0.01724559
H        1.85803499       1.01155061       0.65784043       0.01119216      -0.03772140       0.05554154
H        1.96366152       0.31359999      -0.97216202      -0.01426838       0.07145825       0.00353840
9
Lattice="1.0 0.0 0.0 0.0 1.0 0.0 0.0 0.0 1.0" Properties=species:S:1:pos:R:3:forces:R:3 R1=H R2=H R3=CH3 R4=CH3 leaving_group=Cl nucleophile=Cl rxn=sn2 config=rcc label=H_H_CH3_CH3_Cl_Cl_sn2_rcc conformation=0 reactant_id=H_H_CH3_CH3_Cl_none_-_r product_id=H_H_CH3_CH3_none_Cl_sn2_pc mp2_author_energy=-29302.391748605172 mp2_my_energy=0 hash=59123 address=T id=71 energy=-17372.262884666627 free_energy=-17372.262884666627 cell="(1,0,0), (0,1,0), (0,0,1)" stress="2.1480276784196926e-08 1.1940881362843286e-08 -6.55247232289442e-09 1.1940881362843286e-08 -1.371473140187768e-07 2.616311944133144e-08 -6.55247232289442e-09 2.616311944133144e-08 -1.2741908913395228e-09" pbc="F F F"
C        0.09705047      -0.05084775       0.05639537       0.00059592       0.00881346      -0.00020775
C        1.59666160       0.14509208       0.04260558      -0.00235448       0.00624204      -0.00072605
H        2.07597355      -0.73044490       0.47785779      -0.00864996      -0.03503101      -0.06893686
F       -0.54193004       1.21158804       0.03545038      -0.00011882       0.00729216      -0.05381213
Cl       0.81526894      -3.28160282      -0.41103881       0.00740538      -0.04794215       0.01812055
H       -0.25005201      -0.61653193      -0.80245568       0.00786248      -0.02865742       0.02043190
H       -0.23107583      -0.56785747       0.95718488      -0.00090566       0.04426429       0.02111320
H        1.84996335       1.04010372       0.61612131       0.01176912      -0.03618243       0.06442410
H        1.97403146       0.25976663      -0.97470838      -0.01560397       0.08120106      -0.00040697
9
Lattice="1.0 0.0 0.0 0.0 1.0 0.0 0.0 0.0 1.0" Properties=species:S:1:pos:R:3:forces:R:3 R1=H R2=H R3=CH3 R4=CH3 leaving_group=Cl nucleophile=Cl rxn=sn2 config=rcc label=H_H_CH3_CH3_Cl_Cl_sn2_rcc conformation=0 reactant_id=H_H_CH3_CH3_Cl_none_-_r product_id=H_H_CH3_CH3_none_Cl_sn2_pc mp2_author_energy=-29302.391748605172 mp2_my_energy=0 hash=59123 address=T id=71 energy=-17372.23706448645 free_energy=-17372.23706448645 cell="(1,0,0), (0,1,0), (0,0,1)" stress="2.2057746432725747e-08 9.234363301531545e-09 -7.51277486234909e-09 9.234363301531545e-09 -2.1214648663582683e-07 1.68236168213503e-08 -7.51277486234909e-09 1.68236168213503e-08 -5.023417217657426e-09" pbc="F F F"
C        0.09626808      -0.05792126       0.05702757       0.00050231       0.01270546       0.00039924
C        1.59853758       0.13962512       0.04345000      -0.00274608       0.01094527      -0.00021533
H        2.08305057      -0.69939440       0.53956439      -0.01187015      -0.04064023      -0.06681127
F       -0.54163727       1.20605648       0.08207925      -0.00404689       0.01199367      -0.05752683
Cl       0.81039518      -3.24232244      -0.42942898       0.00691421      -0.07220494       0.01387451
H       -0.25746837      -0.59134178      -0.81943645       0.00990790      -0.03065782       0.02116598
H       -0.23067723      -0.60502095       0.93965992       0.00119753       0.04801599       0.02483776
H        1.83983226       1.07241108       0.55876485       0.01688836      -0.02822618       0.07131964
H        1.98759072       0.18717374      -0.97426809      -0.01674720       0.08806880      -0.00704372
9
Lattice="1.0 0.0 0.0 0.0 1.0 0.0 0.0 0.0 1.0" Properties=species:S:1:pos:R:3:forces:R:3 R1=H R2=H R3=CH3 R4=CH3 leaving_group=Cl nucleophile=Cl rxn=sn2 config=rcc label=H_H_CH3_CH3_Cl_Cl_sn2_rcc conformation=0 reactant_id=H_H_CH3_CH3_Cl_none_-_r product_id=H_H_CH3_CH3_none_Cl_sn2_pc mp2_author_energy=-29302.391748605172 mp2_my_energy=0 hash=59123 address=T id=71 energy=-17372.185443631715 free_energy=-17372.185443631715 cell="(1,0,0), (0,1,0), (0,0,1)" stress="1.8606710861742312e-08 3.342660309176863e-08 -5.098480503708123e-09 3.342660309176863e-08 -4.317696521381832e-07 -4.2559499304965465e-08 -5.098480503708123e-09 -4.2559499304965465e-08 -3.2549850881343144e-09" pbc="F F F"
C        0.09512884      -0.07533233       0.05710516      -0.00716143       0.03827123       0.00559342
C        1.60221062       0.12380005       0.04406614      -0.00819618       0.02850660       0.00413293
H        2.09919767      -0.64012862       0.63818199      -0.04261932      -0.04300923      -0.04702345
F       -0.53580268       1.18992792       0.16467308      -0.02426348       0.02377571      -0.04851961
Cl       0.80290292      -3.14119135      -0.45314627       0.02927362      -0.13986946      -0.01101099
H       -0.27247560      -0.54688332      -0.84879177       0.01584031      -0.02553653       0.02403071
H       -0.23292236      -0.67234342       0.90511393       0.00525233       0.05129300       0.02132238
H        1.81607657       1.11404899       0.45410635       0.06368254       0.00000059       0.06123707
H        2.01157552       0.05736767      -0.96389616      -0.03180838       0.06656810      -0.00976245
9
Lattice="1.0 0.0 0.0 0.0 1.0 0.0 0.0 0.0 1.0" Properties=species:S:1:pos:R:3:forces:R:3 R1=H R2=H R3=CH3 R4=CH3 leaving_group=Cl nucleophile=Cl rxn=sn2 config=rcc label=H_H_CH3_CH3_Cl_Cl_sn2_rcc conformation=0 reactant_id=H_H_CH3_CH3_Cl_none_-_r product_id=H_H_CH3_CH3_none_Cl_sn2_pc mp2_author_energy=-29302.391748605172 mp2_my_energy=0 hash=59123 address=T id=71 energy=-17371.99002662697 free_energy=-17371.99002662697 cell="(1,0,0), (0,1,0), (0,0,1)" stress="3.3608610946699087e-07 -2.239025886530846e-07 -1.808343240001595e-08 -2.239025886530846e-07 -2.2192266684320957e-06 -4.7537666224218903e-07 -1.808343240001595e-08 -4.7537666224218903e-07 1.7012025290452743e-07" pbc="F F F"
C        0.10733958      -0.14309673       0.04803948      -0.22925847       0.59076104       0.09812127
C        1.61665207       0.07240151       0.03725647      -0.10049889       0.20444204       0.03123413
H        2.17444436      -0.55702141       0.73156198      -0.30260346      -0.05329769      -0.03509914
F       -0.49254024       1.14819902       0.25703753       0.00059988      -0.14483024      -0.01918358
Cl       0.75370747      -2.89260632      -0.44079541       0.16143218      -0.67244162      -0.12710763
H       -0.30252818      -0.49690918      -0.89209833       0.09310499      -0.11146816       0.09669358
H       -0.24303917      -0.76559214       0.86633096       0.06658760      -0.00992523      -0.11081037
H        1.70224196       1.11774614       0.33443124       0.50244857       0.21652319       0.04429910
H        2.06961365      -0.07385530      -0.94435147      -0.19181239      -0.01976334       0.02185264
9
Lattice="1.0 0.0 0.0 0.0 1.0 0.0 0.0 0.0 1.0" Properties=species:S:1:pos:R:3:forces:R:3 R1=H R2=H R3=CH3 R4=CH3 leaving_group=Cl nucleophile=Cl rxn=sn2 config=rcc label=H_H_CH3_CH3_Cl_Cl_sn2_rcc conformation=0 reactant_id=H_H_CH3_CH3_Cl_none_-_r product_id=H_H_CH3_CH3_none_Cl_sn2_pc mp2_author_energy=-29302.391748605172 mp2_my_energy=0 hash=59123 address=T id=71 energy=-17371.325412200178 free_energy=-17371.325412200178 cell="(1,0,0), (0,1,0), (0,0,1)" stress="1.094284841801367e-06 -1.5486129716711623e-06 -2.3816828729713106e-07 -1.5486129716711623e-06 -1.909577365680918e-06 -5.343142886363636e-07 -2.3816828729713106e-07 -5.343142886363636e-07 2.382076000778838e-07" pbc="F F F"
C        0.15976647      -0.27816657       0.02577958      -1.10716926       2.84455236       0.48116495
C        1.63962308       0.02561224       0.03006841      -0.19901537       0.28645402       0.03826388
H        2.24328305      -0.54347367       0.74105908      -0.36623415      -0.06741035      -0.05325536
F       -0.49272248       1.18113151       0.26279983       0.66308052      -1.40889844      -0.19631591
Cl       0.71685244      -2.73868046      -0.41281026       0.23293513      -1.15563190      -0.20871667
H       -0.32394272      -0.47071601      -0.91431508       0.14946903      -0.45600519       0.02227643
H       -0.25820955      -0.76394543       0.89136394       0.12913294      -0.31228343      -0.18776111
H        1.58732900       1.06883456       0.32223714       0.72081193       0.32600524       0.06574823
H        2.11391222      -0.07133058      -0.94877019      -0.22301077      -0.05678232       0.03859557
9
Lattice="1.0 0.0 0.0 0.0 1.0 0.0 0.0 0.0 1.0" Properties=species:S:1:pos:R:3:forces:R:3 R1=H R2=H R3=CH3 R4=CH3 leaving_group=Cl nucleophile=Cl rxn=sn2 config=rcc label=H_H_CH3_CH3_Cl_Cl_sn2_rcc conformation=0 reactant_id=H_H_CH3_CH3_Cl_none_-_r product_id=H_H_CH3_CH3_none_Cl_sn2_pc mp2_author_energy=-29302.391748605172 mp2_my_energy=0 hash=59123 address=T id=71 energy=-17370.68765851187 free_energy=-17370.68765851187 cell="(1,0,0), (0,1,0), (0,0,1)" stress="6.060576075606618e-07 -1.4867615295516721e-06 -2.385588591527469e-07 -1.4867615295516721e-06 -5.975307975556424e-07 -1.980396449316155e-07 -2.385588591527469e-07 -1.980396449316155e-07 -1.6896363322100246e-07" pbc="F F F"
C        0.20826960      -0.40276960       0.00503525      -0.86622717       2.48992709       0.41781248
C        1.64829333       0.01312356       0.02829808      -0.07383631       0.18208062       0.02554516
H        2.25922835      -0.54030594       0.74366812      -0.20592144      -0.04474060      -0.03107646
F       -0.52176515       1.24278104       0.27166296       0.57497401      -1.22996488      -0.17772785
Cl       0.70665407      -2.68804345      -0.40386421       0.18188083      -0.87327231      -0.15978805
H       -0.33056635      -0.45066345      -0.91541894       0.01991450      -0.36031883      -0.14482013
H       -0.26378852      -0.75030508       0.89941447       0.01957024      -0.32218702       0.01081281
H        1.55575591       1.05463820       0.31897925       0.47012252       0.20704098       0.03976312
H        2.12381025      -0.06918969      -0.95036254      -0.12047718      -0.04856505       0.01947892
9
Lattice="1.0 0.0 0.0 0.0 1.0 0.0 0.0 0.0 1.0" Properties=species:S:1:pos:R:3:forces:R:3 R1=H R2=H R3=CH3 R4=CH3 leaving_group=Cl nucleophile=Cl rxn=sn2 config=rcc label=H_H_CH3_CH3_Cl_Cl_sn2_rcc conformation=0 reactant_id=H_H_CH3_CH3_Cl_none_-_r product_id=H_H_CH3_CH3_none_Cl_sn2_pc mp2_author_energy=-29302.391748605172 mp2_my_energy=0 hash=59123 address=T id=71 energy=-17370.369078744818 free_energy=-17370.369078744818 cell="(1,0,0), (0,1,0), (0,0,1)" stress="1.1178761000389982e-07 -4.3537708557701503e-07 -6.79053731046797e-08 -4.3537708557701503e-07 -1.7011386419739657e-07 -5.2784047339525365e-08 -6.79053731046797e-08 -5.2784047339525365e-08 -1.090665588106762e-07" pbc="F F F"
C        0.24898493      -0.51982144      -0.01496210      -0.21451511       0.64800738       0.10967548
C        1.65176891       0.00454349       0.02716349      -0.00913770       0.05529348       0.00739231
H        2.26878560      -0.53792313       0.74537147      -0.05867778      -0.01022011      -0.00287173
F       -0.54881908       1.30057735       0.28034995       0.13822105      -0.30274387      -0.03846754
Cl       0.69810040      -2.64692898      -0.39654158       0.05754674      -0.25648637      -0.04981435
H       -0.33144149      -0.43361360      -0.90844353      -0.01170732      -0.08975211      -0.06208835
H       -0.26474405      -0.73528763       0.89900652      -0.00934409      -0.09039650       0.02591224
H        1.53362512       1.04500113       0.31669784       0.13915611       0.06526765       0.00578398
H        2.12963117      -0.06728161      -0.95122961      -0.03154190      -0.01896955       0.00447796
9
Lattice="1.0 0.0 0.0 0.0 1.0 0.0 0.0 0.0 1.0" Properties=species:S:1:pos:R:3:forces:R:3 R1=H R2=H R3=CH3 R4=CH3 leaving_group=Cl nucleophile=Cl rxn=sn2 config=rcc label=H_H_CH3_CH3_Cl_Cl_sn2_rcc conformation=0 reactant_id=H_H_CH3_CH3_Cl_none_-_r product_id=H_H_CH3_CH3_none_Cl_sn2_pc mp2_author_energy=-29302.391748605172 mp2_my_energy=0 hash=59123 address=T id=71 energy=-17370.380334219597 free_energy=-17370.380334219597 cell="(1,0,0), (0,1,0), (0,0,1)" stress="-4.663370983867724e-08 4.2138866541996425e-07 8.088748292818206e-08 4.2138866541996425e-07 2.0863820175197606e-07 2.2069725890626894e-08 8.088748292818206e-08 2.2069725890626894e-08 1.554922887269697e-07" pbc="F F F"
C        0.28142267      -0.62366074      -0.03289361       0.17979360      -0.57534180      -0.09966724
C        1.65140882      -0.00573159       0.02565143      -0.00202885      -0.05682363      -0.00924989
H        2.27831206      -0.53492118       0.74652269       0.04996733       0.02210447       0.01189500
F       -0.56899120       1.34563573       0.28718544      -0.11202838       0.24850790       0.04510822
Cl       0.68703489      -2.60028082      -0.38822315      -0.06129768       0.25928586       0.04229339
H       -0.32664709      -0.41940106      -0.89406741       0.02598834       0.08058326       0.07952828
H       -0.26051653      -0.72007165       0.89051148       0.02399000       0.08291076      -0.04787544
H        1.50813470       1.03309898       0.31408434      -0.14174930      -0.06385384      -0.02296426
H        2.13573319      -0.06540209      -0.95135877       0.03736495       0.00262703       0.00093193
9
Lattice="1.0 0.0 0.0 0.0 1.0 0.0 0.0 0.0 1.0" Properties=species:S:1:pos:R:3:forces:R:3 R1=H R2=H R3=CH3 R4=CH3 leaving_group=Cl nucleophile=Cl rxn=sn2 config=rcc label=H_H_CH3_CH3_Cl_Cl_sn2_rcc conformation=0 reactant_id=H_H_CH3_CH3_Cl_none_-_r product_id=H_H_CH3_CH3_none_Cl_sn2_pc mp2_author_energy=-29302.391748605172 mp2_my_energy=0 hash=59123 address=T id=71 energy=-17370.504353500994 free_energy=-17370.504353500994 cell="(1,0,0), (0,1,0), (0,0,1)" stress="3.356122694960836e-08 6.890853709391115e-07 1.3403094460157815e-07 6.890853709391115e-07 -1.650555253555624e-07 -5.686971021709501e-08 1.3403094460157815e-07 -5.686971021709501e-08 2.1314373678814302e-07" pbc="F F F"
C        0.31239611      -0.71369659      -0.04839480       0.16502987      -0.47956476      -0.08354035
C        1.65237229      -0.02348831       0.02253976       0.00508359      -0.09446898      -0.01739387
H        2.29497761      -0.52746595       0.74933101       0.08577394       0.04509327       0.02021586
F       -0.59231744       1.40801404       0.29708710      -0.12449965       0.33100197       0.06015003
Cl       0.67144029      -2.56654952      -0.38276346      -0.08307416       0.18055405       0.02566600
H       -0.31162480      -0.40678451      -0.87334920       0.07952966       0.06867041       0.11035884
H       -0.24606895      -0.70672637       0.87587677       0.07742256       0.07001888      -0.07850409
H        1.45757993       1.00878798       0.30851238      -0.26975311      -0.12742688      -0.03805851
H        2.14713647      -0.06282517      -0.95142711       0.06448731       0.00612203       0.00110610
9
Lattice="1.0 0.0 0.0 0.0 1.0 0.0 0.0 0.0 1.0" Properties=species:S:1:pos:R:3:forces:R:3 R1=H R2=H R3=CH3 R4=CH3 leaving_group=Cl nucleophile=Cl rxn=sn2 config=rcc label=H_H_CH3_CH3_Cl_Cl_sn2_rcc conformation=0 reactant_id=H_H_CH3_CH3_Cl_none_-_r product_id=H_H_CH3_CH3_none_Cl_sn2_pc mp2_author_energy=-29302.391748605172 mp2_my_energy=0 hash=59123 address=T id=71 energy=-17370.581061113764 free_energy=-17370.581061113764 cell="(1,0,0), (0,1,0), (0,0,1)" stress="1.1046493318540447e-07 3.261506357206434e-07 7.367475452946592e-08 3.261506357206434e-07 -4.635179506809606e-07 -1.0618475547602016e-07 7.367475452946592e-08 -1.0618475547602016e-07 4.695190265316385e-08" pbc="F F F"
C        0.33701714      -0.76711502      -0.05755266       0.06473732      -0.14036854      -0.02496296
C        1.65556574      -0.04161095       0.01869116       0.00833589      -0.04750784      -0.01105735
H        2.31368433      -0.50863895       0.75718888       0.04608584       0.05438281       0.02534443
F       -0.60342730       1.48626779       0.31171517      -0.02955566       0.20443591       0.04578951
Cl       0.65030400      -2.57109796      -0.38671680      -0.05539400      -0.01104745      -0.01313775
H       -0.29014491      -0.40204621      -0.85829194       0.05591225       0.01345669       0.03943711
H       -0.22347200      -0.70632898       0.86545730       0.05983391       0.00051494      -0.02801897
H        1.38382597       0.97758514       0.29724513      -0.19418662      -0.08007609      -0.03753053
H        2.16253855      -0.05774927      -0.95032380       0.04423106       0.00620957       0.00413651
9
Lattice="1.0 0.0 0.0 0.0 1.0 0.0 0.0 0.0 1.0" Properties=species:S:1:pos:R:3:forces:R:3 R1=H R2=H R3=CH3 R4=CH3 leaving_group=Cl nucleophile=Cl rxn=sn2 config=rcc label=H_H_CH3_CH3_Cl_Cl_sn2_rcc conformation=0 reactant_id=H_H_CH3_CH3_Cl_none_-_r product_id=H_H_CH3_CH3_none_Cl_sn2_pc mp2_author_energy=-29302.391748605172 mp2_my_energy=0 hash=59123 address=T id=71 energy=-17370.607136399944 free_energy=-17370.607136399944 cell="(1,0,0), (0,1,0), (0,0,1)" stress="1.2953642694010862e-07 4.365836206241246e-08 2.1866687956081702e-08 4.365836206241246e-08 -2.814138519541896e-07 -7.560239953368443e-08 2.1866687956081702e-08 -7.560239953368443e-08 -1.015455312162797e-08" pbc="F F F"
C        0.34960876      -0.79315953      -0.06194309       0.02101373      -0.04318868      -0.00817156
C        1.65576054      -0.04963991       0.01645265       0.00036678      -0.01327773      -0.00476055
H        2.32087621      -0.48426658       0.76871755       0.00896898       0.04505901       0.02335211
F       -0.58868632       1.54012654       0.32463947       0.02387761       0.08849200       0.02854326
Cl       0.63360287      -2.58642101      -0.39602350      -0.02780826      -0.02485215      -0.01775163
H       -0.27799153      -0.40536600      -0.85219757       0.01972295      -0.00477438       0.00994579
H       -0.20759999      -0.71812495       0.86257955       0.02709157      -0.01973011      -0.00530819
H        1.32739820       0.95976490       0.28272686      -0.09435090      -0.02803856      -0.03153365
H        2.17292277      -0.05364787      -0.94753945       0.02111753       0.00031059       0.00568442
9
Lattice="1.0 0.0 0.0 0.0 1.0 0.0 0.0 0.0 1.0" Properties=species:S:1:pos:R:3:forces:R:3 R1=H R2=H R3=CH3 R4=CH3 leaving_group=Cl nucleophile=Cl rxn=sn2 config=rcc label=H_H_CH3_CH3_Cl_Cl_sn2_rcc conformation=0 reactant_id=H_H_CH3_CH3_Cl_none_-_r product_id=H_H_CH3_CH3_none_Cl_sn2_pc mp2_author_energy=-29302.391748605172 mp2_my_energy=0 hash=59123 address=T id=71 energy=-17370.619690501193 free_energy=-17370.619690501193 cell="(1,0,0), (0,1,0), (0,0,1)" stress="6.932032510303407e-08 -1.8686163796958293e-08 5.621863091687963e-09 -1.8686163796958293e-08 -8.295637483670855e-08 -3.474014829787284e-08 5.621863091687963e-09 -3.474014829787284e-08 -1.2339106837724748e-08" pbc="F F F"
C        0.35576479      -0.81535826      -0.06496756       0.00266023      -0.00920227      -0.00224420