9
Lattice="1.0 0.0 0.0 0.0 1.0 0.0 0.0 0.0 1.0" Properties=species:S:1:pos:R:3:forces:R:3 R1=H R2=H R3=CH3 R4=CH3 leaving_group=Cl nucleophile=Cl rxn=sn2 config=rcc label=H_H_CH3_CH3_Cl_Cl_sn2_rcc conformation=0 reactant_id=H_H_CH3_CH3_Cl_none_-_r product_id=H_H_CH3_CH3_none_Cl_sn2_pc mp2_author_energy=-29302.391748605172 mp2_my_energy=0 hash=59123 address=T id=71 energy=-17372.33216497299 free_energy=-17372.33216497299 cell="(1,0,0), (0,1,0), (0,0,1)" pbc="F F F"
C        0.09142836      -0.02057665       0.00018700      -0.00383810       0.00153641      -0.00068481
C        1.58722280       0.14924827      -0.00111085       0.00020147      -0.00237977      -0.00061630
H        2.03195864      -0.84661872      -0.00635447      -0.00043287       0.00066109       0.00360198
F       -0.53491861       1.24651010      -0.01033438       0.00123778      -0.00105707       0.00337249
Cl       0.88543890      -3.39675651       0.00603569      -0.00050197      -0.00038193      -0.00016305
H       -0.24798218      -0.56713807      -0.87777751      -0.00113173       0.00148985       0.00279851
H       -0.24989953      -0.55273097       0.88632969       0.00349898      -0.00246302      -0.00540624
H        1.91405155       0.69490750       0.88785996      -0.00213133       0.00382493      -0.00088743
H        1.90859158       0.70242064      -0.88742268       0.00309776      -0.00123049      -0.00201515
9
Lattice="1.0 0.0 0.0 0.0 1.0 0.0 0.0 0.0 1.0" Properties=species:S:1:pos:R:3:forces:R:3 R1=H R2=H R3=CH3 R4=CH3 leaving_group=Cl nucleophile=Cl rxn=sn2 config=rcc label=H_H_CH3_CH3_Cl_Cl_sn2_rcc conformation=0 reactant_id=H_H_CH3_CH3_Cl_none_-_r product_id=H_H_CH3_CH3_none_Cl_sn2_pc mp2_author_energy=-29302.391748605172 mp2_my_energy=0 hash=59123 address=T id=71 energy=-17372.33101897641 free_energy=-17372.33101897641 cell="(1,0,0), (0,1,0), (0,0,1)" stress="1.211052404854629e-11 1.5702744932522204e-09 -6.703226677959324e-10 1.5702744932522204e-09 8.225582544995454e-10 1.2361488264756563e-08 -6.703226677959324e-10 1.2361488264756563e-08 3.9194032560508664e-10" pbc="F F F"
C        0.08973319      -0.01830907       0.01520020      -0.00010492       0.00012083      -0.00156899
C        1.58622229       0.14762285       0.00973276      -0.00008010      -0.00021578      -0.00115676
H        2.02921701      -0.84740801       0.06752764      -0.00048825      -0.00098975      -0.00766532
F       -0.53368203       1.24911226      -0.03603763       0.00012291       0.00051124       0.00264004
Cl       0.89460133      -3.39871617      -0.08911756       0.00090289       0.00047552       0.00982991
H       -0.25179128      -0.59366701      -0.84278329      -0.00029696       0.00309321      -0.00363385
H       -0.25256268      -0.51932237       0.91965776      -0.00018645      -0.00303461      -0.00330410
H        1.90913064       0.75083404       0.86266802       0.00059358      -0.00613811       0.00304597
H        1.91502305       0.63911907      -0.90943545      -0.00046270       0.00617745       0.00181311
9
Lattice="1.0 0.0 0.0 0.0 1.0 0.0 0.0 0.0 1.0" Properties=species:S:1:pos:R:3:forces:R:3 R1=H R2=H R3=CH3 R4=CH3 leaving_group=Cl nucleophile=Cl rxn=sn2 config=rcc label=H_H_CH3_CH3_Cl_Cl_sn2_rcc conformation=0 reactant_id=H_H_CH3_CH3_Cl_none_-_r product_id=H_H_CH3_CH3_none_Cl_sn2_pc mp2_author_energy=-29302.391748605172 mp2_my_energy=0 hash=59123 address=T id=71 energy=-17372.326565960226 free_energy=-17372.326565960226 cell="(1,0,0), (0,1,0), (0,0,1)" stress="1.4797547336325787e-10 9.321224134888637e-09 -1.2314696732416512e-09 9.321224134888637e-09 -8.284542163548113e-09 2.0778228443885977e-08 -1.2314696732416512e-09 2.0778228443885977e-08 1.6635791155542322e-09" pbc="F F F"
C        0.08808725      -0.01566718       0.03233099      -0.00066525       0.00140230      -0.00230106
C        1.58511085       0.14637574       0.02211541      -0.00054560      -0.00060509      -0.00181536
H        2.02723193      -0.84303486       0.14516760      -0.00246836      -0.00405641      -0.01731996
F       -0.53186844       1.25026464      -0.06819386       0.00072915       0.00230272       0.00014773
Cl       0.90329573      -3.40593245      -0.19435058       0.00516341      -0.00290157       0.01625693
H       -0.25394603      -0.62416692      -0.80178940      -0.00114754       0.00348524      -0.00380366
H       -0.25612840      -0.47802964       0.95712830      -0.00148968      -0.00019157      -0.00341670
H        1.90473686       0.80785457       0.83228000       0.00226741      -0.01370614       0.00861401
H        1.91937177       0.57160167      -0.92727601      -0.00184354       0.01427050       0.00363809
9
Lattice="1.0 0.0 0.0 0.0 1.0 0.0 0.0 0.0 1.0" Properties=species:S:1:pos:R:3:forces:R:3 R1=H R2=H R3=CH3 R4=CH3 leaving_group=Cl nucleophile=Cl rxn=sn2 config=rcc label=H_H_CH3_CH3_Cl_Cl_sn2_rcc conformation=0 reactant_id=H_H_CH3_CH3_Cl_none_-_r product_id=H_H_CH3_CH3_none_Cl_sn2_pc mp2_author_energy=-29302.391748605172 mp2_my_energy=0 hash=59123 address=T id=71 energy=-17372.318700900836 free_energy=-17372.318700900836 cell="(1,0,0), (0,1,0), (0,0,1)" stress="1.780039564041201e-09 1.8833857996435337e-08 -1.7996542862909254e-09 1.8833857996435337e-08 -3.320324638018563e-08 2.5854135712417384e-08 -1.7996542862909254e-09 2.5854135712417384e-08 2.2975166205260442e-09" pbc="F F F"
C        0.08918653      -0.01928485       0.04573145      -0.00125647       0.00373616      -0.00215492
C        1.58623103       0.14679733       0.03216401      -0.00124993      -0.00028856      -0.00192568
H        2.03395760      -0.82708993       0.23255030      -0.00526539      -0.00972293      -0.03227290
F       -0.53302605       1.24363599      -0.07620462       0.00129300       0.00409903      -0.01015833
Cl       0.89208671      -3.39518974      -0.28432041       0.01041083      -0.01230110       0.01985558
H       -0.25236036      -0.64316229      -0.77658434      -0.00113924      -0.00079296       0.00090390
H       -0.25306826      -0.46513112       0.97969046      -0.00326449       0.01024202       0.00028885
H        1.89522138       0.87297195       0.78938141       0.00549326      -0.02380265       0.01958668
H        1.92766295       0.49571825      -0.94499582      -0.00502157       0.02883099       0.00587682
9
Lattice="1.0 0.0 0.0 0.0 1.0 0.0 0.0 0.0 1.0" Properties=species:S:1:pos:R:3:forces:R:3 R1=H R2=H R3=CH3 R4=CH3 leaving_group=Cl nucleophile=Cl rxn=sn2 config=rcc label=H_H_CH3_CH3_Cl_Cl_sn2_rcc conformation=0 reactant_id=H_H_CH3_CH3_Cl_none_-_r product_id=H_H_CH3_CH3_none_Cl_sn2_pc mp2_author_energy=-29302.391748605172 mp2_my_energy=0 hash=59123 address=T id=71 energy=-17372.30763267982 free_energy=-17372.30763267982 cell="(1,0,0), (0,1,0), (0,0,1)" stress="5.742487209394951e-09 2.1213080869596984e-08 -2.945167862301184e-09 2.1213080869596984e-08 -5.819535821081022e-08 2.942885542864702e-08 -2.945167862301184e-09 2.942885542864702e-08 1.860515235640697e-09" pbc="F F F"
C        0.09106295      -0.02615966       0.05182086      -0.00112572       0.00537224      -0.00176467
C        1.58834732       0.14644228       0.03713507      -0.00169356       0.00087261      -0.00178722
H        2.04349525      -0.80676511       0.30662749      -0.00692144      -0.01654113      -0.04688906
F       -0.53491173       1.23636417      -0.05733711       0.00130957       0.00461246      -0.02283775
Cl       0.87483662      -3.36984905      -0.33493289       0.01188008      -0.02128669       0.02193644
H       -0.25151984      -0.64284727      -0.77484818       0.00059608      -0.00785198       0.00676676
H       -0.24753972      -0.48192339       0.98227808      -0.00374969       0.02097312       0.00533576
H        1.88373586       0.92600264       0.74482870       0.00822072      -0.03164419       0.03273495
H        1.93838478       0.42800099      -0.95815957      -0.00851603       0.04549356       0.00650479
9
Lattice="1.0 0.0 0.0 0.0 1.0 0.0 0.0 0.0 1.0" Properties=species:S:1:pos:R:3:forces:R:3 R1=H R2=H R3=CH3 R4=CH3 leaving_group=Cl nucleophile=Cl rxn=sn2 config=rcc label=H_H_CH3_CH3_Cl_Cl_sn2_rcc conformation=0 reactant_id=H_H_CH3_CH3_Cl_none_-_r product_id=H_H_CH3_CH3_none_Cl_sn2_pc mp2_author_energy=-29302.391748605172 mp2_my_energy=0 hash=59123 address=T id=71 energy=-17372.29218756136 free_energy=-17372.29218756136 cell="(1,0,0), (0,1,0), (0,0,1)" stress="1.1834275317374496e-08 1.9073461737808604e-08 -4.481890971264503e-09 1.9073461737808604e-08 -7.85654962858912e-08 3.255916679697587e-08 -4.481890971264503e-09 3.255916679697587e-08 -3.781871712376466e-11" pbc="F F F"
C        0.09217337      -0.03314112       0.05514232      -0.00048847       0.00619773      -0.00127990
C        1.59043319       0.14463582       0.04010505      -0.00200625       0.00219326      -0.00162336
H        2.05237942      -0.78323040       0.37653034      -0.00755524      -0.02519778      -0.05852605
F       -0.53627439       1.23077825      -0.02581410       0.00135023       0.00495549      -0.03557899
Cl       0.86091168      -3.34023611      -0.37063297       0.01089365      -0.02758663       0.02305937
H       -0.25339754      -0.63197660      -0.78273690       0.00298603      -0.01605977       0.01213132
H       -0.24302779      -0.50931878       0.97626600      -0.00299905       0.02982503       0.01104765
H        1.87217211       0.97237375       0.69627200       0.00955824      -0.03574336       0.04668907
H        1.95052147       0.35938078      -0.96771928      -0.01173915       0.06141603       0.00408089
9
Lattice="1.0 0.0 0.0 0.0 1.0 0.0 0.0 0.0 1.0" Properties=species:S:1:pos:R:3:forces:R:3 R1=H R2=H R3=CH3 R4=CH3 leaving_group=Cl nucleophile=Cl rxn=sn2 config=rcc label=H_H_CH3_CH3_Cl_Cl_sn2_rcc conformation=0 reactant_id=H_H_CH3_CH3_Cl_none_-_r product_id=H_H_CH3_CH3_none_Cl_sn2_pc mp2_author_energy=-29302.391748605172 mp2_my_energy=0 hash=59123 address=T id=71 energy=-17372.263768848912 free_energy=-17372.263768848912 cell="(1,0,0), (0,1,0), (0,0,1)" stress="1.9403714054542587e-08 1.3621576182811931e-08 -6.14280085139519e-09 1.3621576182811931e-08 -1.095548340179063e-07 3.358506465117667e-08 -6.14280085139519e-09 3.358506465117667e-08 -3.61605183397137e-09" pbc="F F F"
C        0.09242377      -0.04206849       0.05785495       0.00042795       0.00693035      -0.00055484
C        1.59323683       0.14071397       0.04298127      -0.00222040       0.00420863      -0.00141440
H        2.06321279      -0.74367985       0.47090343      -0.00717974      -0.03698524      -0.06631626
F       -0.53790279       1.22419168       0.02935955       0.00124525       0.00689737      -0.04917620
Cl       0.84698398      -3.29847528      -0.41058359       0.00807847      -0.03648429       0.02238121
H       -0.25916031      -0.60665671      -0.80037667       0.00566562      -0.02581025       0.01699588
H       -0.23917636      -0.55386891       0.96027756      -0.00110189       0.03795813       0.01856443
H        1.85743049       1.02938816       0.62126408       0.00950092      -0.03444791       0.06280458
H        1.96884312       0.25972102      -0.97426812      -0.01441617       0.07773322      -0.00328441
9
Lattice="1.0 0.0 0.0 0.0 1.0 0.0 0.0 0.0 1.0" Properties=species:S:1:pos:R:3:forces:R:3 R1=H R2=H R3=CH3 R4=CH3 leaving_group=Cl nucleophile=Cl rxn=sn2 config=rcc label=H_H_CH3_CH3_Cl_Cl_sn2_rcc conformation=0 reactant_id=H_H_CH3_CH3_Cl_none_-_r product_id=H_H_CH3_CH3_none_Cl_sn2_pc mp2_author_energy=-29302.391748605172 mp2_my_energy=0 hash=59123 address=T id=71 energy=-17372.214142978177 free_energy=-17372.214142978177 cell="(1,0,0), (0,1,0), (0,0,1)" stress="1.4149176640909608e-08 1.2728648331956286e-08 -5.506101799759367e-09 1.2728648331956286e-08 -1.9753517222499574e-07 1.509404373028282e-08 -5.506101799759367e-09 1.509404373028282e-08 -8.891795626871838e-09" pbc="F F F"
C        0.09098702      -0.05422327       0.05957846      -0.00012078       0.01085827       0.00050793
C        1.59707560       0.13228436       0.04595522      -0.00223465       0.00925976      -0.00045071
H        2.07575541      -0.67272102       0.60021904      -0.00811964      -0.04357453      -0.05646724
F       -0.53978094       1.21264108       0.12341184      -0.00351209       0.01362894      -0.05150111
Cl       0.83531200      -3.23179330      -0.45690124       0.00790035      -0.06507157       0.01295717
H       -0.27129279      -0.55636186      -0.83187598       0.00608763      -0.02768271       0.01705577
H       -0.23806376      -0.62440287       0.92586183       0.00047395       0.04203116       0.02435034
H        1.83969079       1.09613357       0.49917565       0.01343534      -0.01876674       0.06827092
H        1.99620815       0.10770892      -0.96801237      -0.01391011       0.07931742      -0.01472307
9
Lattice="1.0 0.0 0.0 0.0 1.0 0.0 0.0 0.0 1.0" Properties=species:S:1:pos:R:3:forces:R:3 R1=H R2=H R3=CH3 R4=CH3 leaving_group=Cl nucleophile=Cl rxn=sn2 config=rcc label=H_H_CH3_CH3_Cl_Cl_sn2_rcc conformation=0 reactant_id=H_H_CH3_CH3_Cl_none_-_r product_id=H_H_CH3_CH3_none_Cl_sn2_pc mp2_author_energy=-29302.391748605172 mp2_my_energy=0 hash=59123 address=T id=71 energy=-17372.144080583323 free_energy=-17372.144080583323 cell="(1,0,0), (0,1,0), (0,0,1)" stress="1.3186015238485006e-08 7.926254716990458e-08 1.212136558010245e-08 7.926254716990458e-08 -5.32905698986789e-07 -9.933152234077808e-08 1.212136558010245e-08 -9.933152234077808e-08 2.9783249554610667e-09" pbc="F F F"
C        0.09034430      -0.08237095       0.05899879      -0.01493416       0.05791305       0.01100845
C        1.60268518       0.10649342       0.04758567      -0.01362649       0.03730887       0.00699923
H        2.09648955      -0.54972037       0.76183916      -0.06159626      -0.02335706      -0.01377632
F       -0.52970963       1.17745619       0.26890417      -0.03805748       0.02624363      -0.01174892
Cl       0.81904669      -3.05844181      -0.49790943       0.05967671      -0.16811793      -0.03211902
H       -0.29018040      -0.47596756      -0.87894656       0.01228980       0.00268291       0.01973194
H       -0.24081657      -0.73959654       0.85860724       0.00790840       0.03427167       0.00266490
H        1.80350617       1.15026353       0.30494379       0.10112964       0.02366776       0.01997371
H        2.03452622      -0.11885033      -0.92661036      -0.05279017       0.00938711      -0.00273398
9
Lattice="1.0 0.0 0.0 0.0 1.0 0.0 0.0 0.0 1.0" Properties=species:S:1:pos:R:3:forces:R:3 R1=H R2=H R3=CH3 R4=CH3 leaving_group=Cl nucleophile=Cl rxn=sn2 config=rcc label=H_H_CH3_CH3_Cl_Cl_sn2_rcc conformation=0 reactant_id=H_H_CH3_CH3_Cl_none_-_r product_id=H_H_CH3_CH3_none_Cl_sn2_pc mp2_author_energy=-29302.391748605172 mp2_my_energy=0 hash=59123 address=T id=71 energy=-17371.948517116543 free_energy=-17371.948517116543 cell="(1,0,0), (0,1,0), (0,0,1)" stress="4.301311988292133e-07 -3.5481592337593316e-07 -5.916610907202365e-08 -3.5481592337593316e-07 -2.474428320221487e-06 -5.278965183962523e-07 -5.916610907202365e-08 -5.278965183962523e-07 2.3131928325856134e-07" pbc="F F F"
C        0.10727322      -0.14906864       0.04666459      -0.26888679       0.66934939       0.12385730
C        1.61826004       0.06285134       0.03973470      -0.12207803       0.24299729       0.04438838
H        2.16667434      -0.51707730       0.78405759      -0.31509653      -0.04040124      -0.03239783
F       -0.48535740       1.14691979       0.28853257       0.01429639      -0.20898887      -0.03302737
Cl       0.75254996      -2.86372326      -0.46435135       0.17087609      -0.75370689      -0.14427907
H       -0.30548433      -0.47408169      -0.90292546       0.10127400      -0.10686026       0.11791041
H       -0.25049962      -0.78188231       0.85325067       0.08641579      -0.02942692      -0.14642478
H        1.68661012       1.12438936       0.27316845       0.60096736       0.26344199       0.03999144
H        2.09586518      -0.13906171      -0.92071931      -0.26776827      -0.03640449       0.02998150
9
Lattice="1.0 0.0 0.0 0.0 1.0 0.0 0.0 0.0 1.0" Properties=species:S:1:pos:R:3:forces:R:3 R1=H R2=H R3=CH3 R4=CH3 leaving_group=Cl nucleophile=Cl rxn=sn2 config=rcc label=H_H_CH3_CH3_Cl_Cl_sn2_rcc conformation=0 reactant_id=H_H_CH3_CH3_Cl_none_-_r product_id=H_H_CH3_CH3_none_Cl_sn2_pc mp2_author_energy=-29302.391748605172 mp2_my_energy=0 hash=59123 address=T id=71 energy=-17371.45220536225 free_energy=-17371.45220536225 cell="(1,0,0), (0,1,0), (0,0,1)" stress="1.1280931873813823e-06 -1.4512297419925616e-06 -2.6041168503155453e-07 -1.4512297419925616e-06 -1.8721569756314054e-06 -4.64451393942753e-07 -2.6041168503155453e-07 -4.64451393942753e-07 3.892510698196439e-07" pbc="F F F"
C        0.14828304      -0.25063406       0.02801239      -1.00602273       2.52087894       0.46747290
C        1.63663832       0.02623761       0.03301976      -0.21076748       0.29537975       0.05442294
H        2.21442147      -0.51043941       0.78962563      -0.34252492      -0.04995227      -0.05540286
F       -0.48771165       1.17873336       0.29410375       0.60310779      -1.36385804      -0.23846391
Cl       0.72634462      -2.74945835      -0.44288522       0.21227184      -1.10033506      -0.20863347
H       -0.32087359      -0.45783982      -0.92102843       0.15914952      -0.34144885       0.09916422
H       -0.26353544      -0.77787474       0.87538138       0.14176001      -0.23935698      -0.22003945
H        1.59556467       1.08476474       0.26633376       0.72940565       0.34266117       0.05357126
H        2.13676008      -0.13422374      -0.92515057      -0.28637968      -0.06396866       0.04790838
9
Lattice="1.0 0.0 0.0 0.0 1.0 0.0 0.0 0.0 1.0" Properties=species:S:1:pos:R:3:forces:R:3 R1=H R2=H R3=CH3 R4=CH3 leaving_group=Cl nucleophile=Cl rxn=sn2 config=rcc label=H_H_CH3_CH3_Cl_Cl_sn2_rcc conformation=0 reactant_id=H_H_CH3_CH3_Cl_none_-_r product_id=H_H_CH3_CH3_none_Cl_sn2_pc mp2_author_energy=-29302.391748605172 mp2_my_energy=0 hash=59123 address=T id=71 energy=-17370.880334528418 free_energy=-17370.880334528418 cell="(1,0,0), (0,1,0), (0,0,1)" stress="8.534320443251247e-07 -1.7537589355944239e-06 -3.226145929345221e-07 -1.7537589355944239e-06 -2.7112590452265685e-07 -8.465817252835328e-08 -3.226145929345221e-07 -8.465817252835328e-08 2.9426804952914067e-08" pbc="F F F"
C        0.19053984      -0.35713347       0.00810997      -1.01911670       2.85753223       0.53772158
C        1.64580902       0.01366768       0.03073086      -0.11217270       0.20513223       0.03484634
H        2.22875019      -0.50808398       0.79201889      -0.21541490      -0.04515729      -0.02877972
F       -0.51321476       1.23630202       0.30433897       0.70118752      -1.57687440      -0.28079475
Cl       0.71733964      -2.70321069      -0.43422307       0.17425156      -0.91860914      -0.17478923
H       -0.32752267      -0.44331511      -0.92505454       0.05968165      -0.36681651      -0.07773636
H       -0.26949330      -0.76778303       0.88464518       0.05668980      -0.33469565      -0.06560620
H        1.56482150       1.07047696       0.26388126       0.53290661       0.23313261       0.03427108
H        2.14886206      -0.13165478      -0.92703507      -0.17801285      -0.05364408       0.02086726
9
Lattice="1.0 0.0 0.0 0.0 1.0 0.0 0.0 0.0 1.0" Properties=species:S:1:pos:R:3:forces:R:3 R1=H R2=H R3=CH3 R4=CH3 leaving_group=Cl nucleophile=Cl rxn=sn2 config=rcc label=H_H_CH3_CH3_Cl_Cl_sn2_rcc conformation=0 reactant_id=H_H_CH3_CH3_Cl_none_-_r product_id=H_H_CH3_CH3_none_Cl_sn2_pc mp2_author_energy=-29302.391748605172 mp2_my_energy=0 hash=59123 address=T id=71 energy=-17370.508879999354 free_energy=-17370.508879999354 cell="(1,0,0), (0,1,0), (0,0,1)" stress="3.7970229624445954e-07 -1.18050542501766e-06 -2.187500562283231e-07 -1.18050542501766e-06 5.616746421356821e-09 1.974089178076388e-08 -2.187500562283231e-07 1.974089178076388e-08 -1.801566976671333e-07" pbc="F F F"
C        0.22264535      -0.44691994      -0.00868696      -0.57300473       1.76965275       0.33151021
C        1.64925047       0.00726738       0.02960889      -0.02010922       0.12668664       0.02091198
H        2.23548885      -0.50656675       0.79303927      -0.12447946      -0.02739309      -0.01154191
F       -0.53525786       1.28582334       0.31328023       0.40796536      -0.94462118      -0.16708454
Cl       0.71184620      -2.67437231      -0.42881224       0.11102579      -0.58368604      -0.11172293
H       -0.32944007      -0.43175461      -0.92266955      -0.01221443      -0.21778241      -0.13066746
H       -0.27126036      -0.75728684       0.88666175      -0.00884480      -0.23188804       0.04226843
H        1.54809633       1.06317394       0.26264701       0.32263810       0.14239412       0.01837699
H        2.15452260      -0.13009862      -0.92765595      -0.10297662      -0.03336275       0.00794924
9
Lattice="1.0 0.0 0.0 0.0 1.0 0.0 0.0 0.0 1.0" Properties=species:S:1:pos:R:3:forces:R:3 R1=H R2=H R3=CH3 R4=CH3 leaving_group=Cl nucleophile=Cl rxn=sn2 config=rcc label=H_H_CH3_CH3_Cl_Cl_sn2_rcc conformation=0 reactant_id=H_H_CH3_CH3_Cl_none_-_r product_id=H_H_CH3_CH3_none_Cl_sn2_pc mp2_author_energy=-29302.391748605172 mp2_my_energy=0 hash=59123 address=T id=71 energy=-17370.352485332136 free_energy=-17370.352485332136 cell="(1,0,0), (0,1,0), (0,0,1)" stress="-8.128042334477501e-10 -3.353065317108847e-09 3.028180438867045e-09 -3.353065317108847e-09 6.681052665704867e-10 -6.8836630118585406e-09 3.028180438867045e-09 -6.8836630118585406e-09 -2.5552920145819096e-09" pbc="F F F"
C        0.25838619      -0.55729105      -0.02938716      -0.00046661       0.00183686      -0.00000159
C        1.65050601      -0.00062394       0.02828549      -0.00005707       0.00021151      -0.00039648
H        2.24315815      -0.50462609       0.79394884      -0.00161231       0.00357516       0.00313356
F       -0.56072360       1.34468888       0.32395101       0.00005516      -0.00173983       0.00396856
Cl       0.70488019      -2.63800143      -0.42199521      -0.00049832      -0.00083397      -0.00236739
H       -0.32867956      -0.41810445      -0.91450036      -0.00014205       0.00071288      -0.00003544
H       -0.27068590      -0.74288005       0.88398474       0.00033143      -0.00104236      -0.00059411
H        1.52798857       1.05437293       0.26119441       0.00046806       0.00138637      -0.00486572
H        2.16106147      -0.12826921      -0.92806930       0.00192172      -0.00410663       0.00115861
9
Lattice="1.0 0.0 0.0 0.0 1.0 0.0 0.0 0.0 1.0" Properties=species:S:1:pos:R:3:forces:R:3 R1=H R2=H R3=CH3 R4=CH3 leaving_group=Cl nucleophile=Cl rxn=sn2 config=rcc label=H_H_CH3_CH3_Cl_Cl_sn2_rcc conformation=0 reactant_id=H_H_CH3_CH3_Cl_none_-_r product_id=H_H_CH3_CH3_none_Cl_sn2_pc mp2_author_energy=-29302.391748605172 mp2_my_energy=0 hash=59123 address=T id=71 energy=-17370.376137898238 free_energy=-17370.376137898238 cell="(1,0,0), (0,1,0), (0,0,1)" stress="-1.3906906966457553e-08 3.106841841480388e-07 6.300280783370736e-08 3.106841841480388e-07 3.416979260883049e-07 3.397239040499339e-08 6.300280783370736e-08 3.397239040499339e-08 1.3258612693948564e-07" pbc="F F F"
C        0.27370845      -0.60760852      -0.03884025       0.14807321      -0.48597609      -0.09170698
C        1.65030329      -0.00597556       0.02736727      -0.00175508      -0.05169616      -0.00933741
H        2.24786912      -0.50309175       0.79445927       0.04410555       0.01853493       0.00832071
F       -0.56872856       1.36442310       0.32747008      -0.07747692       0.18876571       0.03802228
Cl       0.69865472      -2.61236494      -0.41720192      -0.06116901       0.24779019       0.04417353
H       -0.32638357      -0.41172538      -0.90754373       0.02200847       0.06271225       0.06729987
H       -0.26863333      -0.73509746       0.87974099       0.02011983       0.07467223      -0.04155914
H        1.51398731       1.04769051       0.26012592      -0.13521951      -0.06335891      -0.01521056
H        2.16511409      -0.12698440      -0.92816519       0.04131346       0.00855585      -0.00000229
9
Lattice="1.0 0.0 0.0 0.0 1.0 0.0 0.0 0.0 1.0" Properties=species:S:1:pos:R:3:forces:R:3 R1=H R2=H R3=CH3 R4=CH3 leaving_group=Cl nucleophile=Cl rxn=sn2 config=rcc label=H_H_CH3_CH3_Cl_Cl_sn2_rcc conformation=0 reactant_id=H_H_CH3_CH3_Cl_none_-_r product_id=H_H_CH3_CH3_none_Cl_sn2_pc mp2_author_energy=-29302.391748605172 mp2_my_energy=0 hash=59123 address=T id=71 energy=-17370.47773812298 free_energy=-17370.47773812298 cell="(1,0,0), (0,1,0), (0,0,1)" stress="7.119379294791639e-08 5.924253528660657e-07 1.1686492633764923e-07 5.924253528660657e-07 3.841695246840174e-07 1.7863380898768143e-08 1.1686492633764923e-07 1.7863380898768143e-08 2.5384543016329483e-07" pbc="F F F"
C        0.29933222      -0.68623295      -0.05360281       0.19984073      -0.61436061      -0.11589811
C        1.65076857      -0.01880846       0.02505035       0.00368198      -0.09971381      -0.01849812
H        2.25897479      -0.49889733       0.79593800       0.08466586       0.03610846       0.01539506
F       -0.58275423       1.40205590       0.33409986      -0.10629782       0.28893141       0.05531833
Cl       0.68435922      -2.57098524      -0.40953768      -0.11159492       0.32394991       0.05794000
H       -0.31717840      -0.40200099      -0.89173186       0.07083990       0.07791596       0.12385043
H       -0.26000909      -0.72196570       0.86838661       0.06685842       0.10336178      -0.08908786
H        1.47761167       1.02977114       0.25721860      -0.28516611      -0.13823781      -0.02741907
H        2.17478676      -0.12367077      -0.92840862       0.07717198       0.02204472      -0.00160066
9
Lattice="1.0 0.0 0.0 0.0 1.0 0.0 0.0 0.0 1.0" Properties=species:S:1:pos:R:3:forces:R:3 R1=H R2=H R3=CH3 R4=CH3 leaving_group=Cl nucleophile=Cl rxn=sn2 config=rcc label=H_H_CH3_CH3_Cl_Cl_sn2_rcc conformation=0 reactant_id=H_H_CH3_CH3_Cl_none_-_r product_id=H_H_CH3_CH3_none_Cl_sn2_pc mp2_author_energy=-29302.391748605172 mp2_my_energy=0 hash=59123 address=T id=71 energy=-17370.56847754793 free_energy=-17370.56847754793 cell="(1,0,0), (0,1,0), (0,0,1)" stress="1.3146114570161005e-07 4.004020179721228e-07 7.858703658223106e-08 4.004020179721228e-07 -2.987978487128428e-07 -8.45963668125635e-08 7.858703658223106e-08 -8.45963668125635e-08 1.0205742144345182e-07" pbc="F F F"
C        0.32620616      -0.74796906      -0.06508885       0.09458900      -0.21782699      -0.04113036
C        1.65418370      -0.03708412       0.02157203       0.01188598      -0.06395509      -0.01274470
H        2.27706540      -0.48652199       0.80047157       0.06213432       0.04602396       0.01752205
F       -0.59347821       1.46320966       0.34459310      -0.04038420       0.21621073       0.04168647
Cl       0.66098778      -2.55993179      -0.40835983      -0.08216934       0.04042635       0.00288298
H       -0.29705674      -0.39414055      -0.87420645       0.07043790       0.02722754       0.06126407
H       -0.23990401      -0.71229681       0.85541286       0.07082301       0.03285739      -0.04632123
H        1.40673611       0.99858348       0.25125969      -0.24735370      -0.10806210      -0.02532855
H        2.19115131      -0.11458323      -0.92824167       0.06003704       0.02709820       0.00216926
9
Lattice="1.0 0.0 0.0 0.0 1.0 0.0 0.0 0.0 1.0" Properties=species:S:1:pos:R:3:forces:R:3 R1=H R2=H R3=CH3 R4=CH3 leaving_group=Cl nucleophile=Cl rxn=sn2 config=rcc label=H_H_CH3_CH3_Cl_Cl_sn2_rcc conformation=0 reactant_id=H_H_CH3_CH3_Cl_none_-_r product_id=H_H_CH3_CH3_none_Cl_sn2_pc mp2_author_energy=-29302.391748605172 mp2_my_energy=0 hash=59123 address=T id=71 energy=-17370.605828406187 free_energy=-17370.605828406187 cell="(1,0,0), (0,1,0), (0,0,1)" stress="1.473445400400702e-07 7.6911340504079e-08 1.5243292041934275e-08 7.6911340504079e-08 -3.155383254816661e-07 -6.926574907160929e-08 1.5243292041934275e-08 -6.926574907160929e-08 4.509881541691577e-09" pbc="F F F"
C        0.34370371      -0.78175177      -0.07100418       0.03246019      -0.06219814      -0.01159275
C        1.65587789      -0.04834124       0.01948309       0.00334860      -0.02071862      -0.00452847
H        2.28914465      -0.46629591       0.80796230       0.02078439       0.04042837       0.01608010
F       -0.58343555       1.52119631       0.35373413       0.01797470       0.10562523       0.02158862
Cl       0.63710340      -2.57549171      -0.41447153      -0.04538628      -0.02850884      -0.01189601
H       -0.27909055      -0.39500335      -0.86596503       0.03351255      -0.00172281       0.01428106
H       -0.21985710      -0.71707430       0.85011194       0.03731392      -0.00857459      -0.01047465
H        1.33907425       0.97359859       0.24385971      -0.12472469      -0.04540078      -0.01769823
H        2.20337081      -0.10157101      -0.92629798       0.02471662       0.02107018       0.00424033
9
Lattice="1.0 0.0 0.0 0.0 1.0 0.0 0.0 0.0 1.0" Properties=species:S:1:pos:R:3:forces:R:3 R1=H R2=H R3=CH3 R4=CH3 leaving_group=Cl nucleophile=Cl rxn=sn2 config=rcc label=H_H_CH3_CH3_Cl_Cl_sn2_rcc conformation=0 reactant_id=H_H_CH3_CH3_Cl_none_-_r product_id=H_H_CH3_CH3_none_Cl_sn2_pc mp2_author_energy=-29302.391748605172 mp2_my_energy=0 hash=59123 address=T id=71 energy=-17370.620396258153 free_energy=-17370.620396258153 cell="(1,0,0), (0,1,0), (0,0,1)" stress="7.290278775606542e-08 -1.5030950158158367e-08 -2.8039485959299843e-09 -1.5030950158158367e-08 -1.0532928821693307e-07 -2.403442346458222e-08 -2.8039485959299843e-09 -2.403442346458222e-08 -6.652277291427989e-09" pbc="F F F"
C        0.35368403      -0.80970232      -0.07308516       0.00436863      -0.01221874      -0.00196562