9
Lattice="1.0 0.0 0.0 0.0 1.0 0.0 0.0 0.0 1.0" Properties=species:S:1:pos:R:3:forces:R:3 R1=H R2=H R3=CH3 R4=CH3 leaving_group=Cl nucleophile=Cl rxn=sn2 config=rcc label=H_H_CH3_CH3_Cl_Cl_sn2_rcc conformation=0 reactant_id=H_H_CH3_CH3_Cl_none_-_r product_id=H_H_CH3_CH3_none_Cl_sn2_pc mp2_author_energy=-29302.391748605172 mp2_my_energy=0 hash=59123 address=T id=71 energy=-17372.33216497299 free_energy=-17372.33216497299 cell="(1,0,0), (0,1,0), (0,0,1)" pbc="F F F"
C        0.09142836      -0.02057665       0.00018700      -0.00383810       0.00153641      -0.00068481
C        1.58722280       0.14924827      -0.00111085       0.00020147      -0.00237977      -0.00061630
H        2.03195864      -0.84661872      -0.00635447      -0.00043287       0.00066109       0.00360198
F       -0.53491861       1.24651010      -0.01033438       0.00123778      -0.00105707       0.00337249
Cl       0.88543890      -3.39675651       0.00603569      -0.00050197      -0.00038193      -0.00016305
H       -0.24798218      -0.56713807      -0.87777751      -0.00113173       0.00148985       0.00279851
H       -0.24989953      -0.55273097       0.88632969       0.00349898      -0.00246302      -0.00540624
H        1.91405155       0.69490750       0.88785996      -0.00213133       0.00382493      -0.00088743
H        1.90859158       0.70242064      -0.88742268       0.00309776      -0.00123049      -0.00201515
9
Lattice="1.0 0.0 0.0 0.0 1.0 0.0 0.0 0.0 1.0" Properties=species:S:1:pos:R:3:forces:R:3 R1=H R2=H R3=CH3 R4=CH3 leaving_group=Cl nucleophile=Cl rxn=sn2 config=rcc label=H_H_CH3_CH3_Cl_Cl_sn2_rcc conformation=0 reactant_id=H_H_CH3_CH3_Cl_none_-_r product_id=H_H_CH3_CH3_none_Cl_sn2_pc mp2_author_energy=-29302.391748605172 mp2_my_energy=0 hash=59123 address=T id=71 energy=-17372.331008449553 free_energy=-17372.331008449553 cell="(1,0,0), (0,1,0), (0,0,1)" stress="-3.5859189356832155e-11 3.0670448908578573e-09 -6.860739071953048e-10 3.0670448908578573e-09 2.6681747059780867e-10 1.2506826387581033e-08 -6.860739071953048e-10 1.2506826387581033e-08 3.6638887803511526e-10" pbc="F F F"
C        0.09046469      -0.01935591       0.01506483      -0.00022484       0.00031234      -0.00156141
C        1.58674135       0.14855227       0.00962101      -0.00016769      -0.00035042      -0.00115142
H        2.03112338      -0.84580044       0.06829024      -0.00081793      -0.00127951      -0.00809687
F       -0.53450204       1.24737813      -0.03468576       0.00024711       0.00078971       0.00229081
Cl       0.88976524      -3.39810144      -0.08858848       0.00170470       0.00024929       0.00990481
H       -0.25045428      -0.59413207      -0.84351915      -0.00049488       0.00311764      -0.00347991
H       -0.25102947      -0.52190104       0.91894462      -0.00044481      -0.00250431      -0.00317473
H        1.90866498       0.75287182       0.86213786       0.00073601      -0.00669473       0.00329189
H        1.91511765       0.63975428      -0.90985271      -0.00053767       0.00635998       0.00197682
9
Lattice="1.0 0.0 0.0 0.0 1.0 0.0 0.0 0.0 1.0" Properties=species:S:1:pos:R:3:forces:R:3 R1=H R2=H R3=CH3 R4=CH3 leaving_group=Cl nucleophile=Cl rxn=sn2 config=rcc label=H_H_CH3_CH3_Cl_Cl_sn2_rcc conformation=0 reactant_id=H_H_CH3_CH3_Cl_none_-_r product_id=H_H_CH3_CH3_none_Cl_sn2_pc mp2_author_energy=-29302.391748605172 mp2_my_energy=0 hash=59123 address=T id=71 energy=-17372.326475221016 free_energy=-17372.326475221016 cell="(1,0,0), (0,1,0), (0,0,1)" stress="1.8221483165802889e-10 1.0953434235232431e-08 -1.2568735003300735e-09 1.0953434235232431e-08 -9.98894964228759e-09 2.13150060228592e-08 -1.2568735003300735e-09 2.13150060228592e-08 1.6139458972823872e-09" pbc="F F F"
C        0.08936214      -0.01766285       0.03169964      -0.00079016       0.00167474      -0.00232309
C        1.58603642       0.14782562       0.02158545      -0.00064721      -0.00068765      -0.00182616
H        2.03057421      -0.84028883       0.14617223      -0.00287402      -0.00446322      -0.01835648
F       -0.53327964       1.24738600      -0.06385499       0.00083292       0.00261491      -0.00049994
Cl       0.89486591      -3.40352047      -0.19128360       0.00604136      -0.00356931       0.01662200
H       -0.25181119      -0.62360241      -0.80455677      -0.00129358       0.00342184      -0.00357154
H       -0.25336970      -0.48455097       0.95471151      -0.00178548       0.00061355      -0.00324481
H        1.90368171       0.81103949       0.83108733       0.00255098      -0.01466888       0.00924633
H        1.91983165       0.57264001      -0.92814834      -0.00203481       0.01506400       0.00395370
9
Lattice="1.0 0.0 0.0 0.0 1.0 0.0 0.0 0.0 1.0" Properties=species:S:1:pos:R:3:forces:R:3 R1=H R2=H R3=CH3 R4=CH3 leaving_group=Cl nucleophile=Cl rxn=sn2 config=rcc label=H_H_CH3_CH3_Cl_Cl_sn2_rcc conformation=0 reactant_id=H_H_CH3_CH3_Cl_none_-_r product_id=H_H_CH3_CH3_none_Cl_sn2_pc mp2_author_energy=-29302.391748605172 mp2_my_energy=0 hash=59123 address=T id=71 energy=-17372.318522450863 free_energy=-17372.318522450863 cell="(1,0,0), (0,1,0), (0,0,1)" stress="1.9092715482524677e-09 1.958823134428844e-08 -1.874372119901851e-09 1.958823134428844e-08 -3.568842861207809e-08 2.6396604421272833e-08 -1.874372119901851e-09 2.6396604421272833e-08 2.269467087789916e-09" pbc="F F F"
C        0.09036960      -0.02129228       0.04465483      -0.00130718       0.00396032      -0.00220667
C        1.58710634       0.14797150       0.03115253      -0.00130505      -0.00022837      -0.00193982
H        2.03704483      -0.82488439       0.23148708      -0.00552426      -0.00994391      -0.03308196
F       -0.53430315       1.24113917      -0.07029086       0.00128340       0.00433325      -0.01059331
Cl       0.88435605      -3.39175700      -0.27812753       0.01081587      -0.01324915       0.02025210
H       -0.25066866      -0.64128212      -0.78071937      -0.00111901      -0.00079548       0.00095840
H       -0.25035614      -0.47312373       0.97621863      -0.00341205       0.01072347       0.00037155
H        1.89424403       0.87445690       0.78878562       0.00573742      -0.02441966       0.02012243
H        1.92809861       0.49803754      -0.94574849      -0.00516913       0.02961953       0.00611728
9
Lattice="1.0 0.0 0.0 0.0 1.0 0.0 0.0 0.0 1.0" Properties=species:S:1:pos:R:3:forces:R:3 R1=H R2=H R3=CH3 R4=CH3 leaving_group=Cl nucleophile=Cl rxn=sn2 config=rcc label=H_H_CH3_CH3_Cl_Cl_sn2_rcc conformation=0 reactant_id=H_H_CH3_CH3_Cl_none_-_r product_id=H_H_CH3_CH3_none_Cl_sn2_pc mp2_author_energy=-29302.391748605172 mp2_my_energy=0 hash=59123 address=T id=71 energy=-17372.307536558867 free_energy=-17372.307536558867 cell="(1,0,0), (0,1,0), (0,0,1)" stress="5.798163073068535e-09 2.1747745659414288e-08 -2.993645891927854e-09 2.1747745659414288e-08 -6.11902216512883e-08 2.974076848336008e-08 -2.993645891927854e-09 2.974076848336008e-08 1.9034077946682922e-09" pbc="F F F"
C        0.09206487      -0.02792142       0.05085119      -0.00116578       0.00558814      -0.00182731
C        1.58908115       0.14735258       0.03606648      -0.00172842       0.00097289      -0.00180122
H        2.04605123      -0.80542973       0.30390797      -0.00710638      -0.01648707      -0.04713618
F       -0.53599117       1.23412507      -0.05245643       0.00127822       0.00490484      -0.02281471
Cl       0.86840638      -3.36631839      -0.32851367       0.01216025      -0.02241666       0.02221234
H       -0.25018039      -0.64141478      -0.77825687       0.00059090      -0.00756028       0.00657883
H       -0.24515792      -0.48860866       0.97931602      -0.00384655       0.02107328       0.00527012
H        1.88312139       0.92605549       0.74523293       0.00838575      -0.03184885       0.03283738
H        1.93849597       0.43142543      -0.95873516      -0.00856799       0.04577371       0.00668075
9
Lattice="1.0 0.0 0.0 0.0 1.0 0.0 0.0 0.0 1.0" Properties=species:S:1:pos:R:3:forces:R:3 R1=H R2=H R3=CH3 R4=CH3 leaving_group=Cl nucleophile=Cl rxn=sn2 config=rcc label=H_H_CH3_CH3_Cl_Cl_sn2_rcc conformation=0 reactant_id=H_H_CH3_CH3_Cl_none_-_r product_id=H_H_CH3_CH3_none_Cl_sn2_pc mp2_author_energy=-29302.391748605172 mp2_my_energy=0 hash=59123 address=T id=71 energy=-17372.292474171816 free_energy=-17372.292474171816 cell="(1,0,0), (0,1,0), (0,0,1)" stress="1.1713998492674827e-08 1.97510540791418e-08 -4.490907780520716e-09 1.97510540791418e-08 -8.224202397407344e-08 3.250274557858336e-08 -4.490907780520716e-09 3.250274557858336e-08 1.8601743334909556e-11" pbc="F F F"
C        0.09309656      -0.03472909       0.05436526      -0.00055310       0.00645241      -0.00133314
C        1.59106667       0.14544979       0.03907476      -0.00203954       0.00230848      -0.00161954
H        2.05458533      -0.78281770       0.37218760      -0.00773918      -0.02483761      -0.05832417
F       -0.53725688       1.22853368      -0.02263649       0.00130845       0.00530861      -0.03517651
Cl       0.85519159      -3.33683609      -0.36451156       0.01124318      -0.02896748       0.02314218
H       -0.25209522      -0.63161236      -0.78500755       0.00290464      -0.01546144       0.01181635
H       -0.24082959      -0.51429878       0.97414470      -0.00312409       0.02972691       0.01084085
H        1.87188809       0.97129584       0.69800563       0.00973970      -0.03570694       0.04634332
H        1.95024495       0.36428030      -0.96820989      -0.01174006       0.06117707       0.00431066
9
Lattice="1.0 0.0 0.0 0.0 1.0 0.0 0.0 0.0 1.0" Properties=species:S:1:pos:R:3:forces:R:3 R1=H R2=H R3=CH3 R4=CH3 leaving_group=Cl nucleophile=Cl rxn=sn2 config=rcc label=H_H_CH3_CH3_Cl_Cl_sn2_rcc conformation=0 reactant_id=H_H_CH3_CH3_Cl_none_-_r product_id=H_H_CH3_CH3_none_Cl_sn2_pc mp2_author_energy=-29302.391748605172 mp2_my_energy=0 hash=59123 address=T id=71 energy=-17372.26445251746 free_energy=-17372.26445251746 cell="(1,0,0), (0,1,0), (0,0,1)" stress="1.9283838402552637e-08 1.4618089498900554e-08 -6.203565031033284e-09 1.4618089498900554e-08 -1.1597099385834665e-07 3.285742162061489e-08 -6.203565031033284e-09 3.285742162061489e-08 -3.5612526320724123e-09" pbc="F F F"
C        0.09331689      -0.04370293       0.05737878       0.00033910       0.00738628      -0.00054164
C        1.59379530       0.14131612       0.04204074      -0.00228708       0.00447385      -0.00134261
H        2.06526901      -0.74426996       0.46582108      -0.00757995      -0.03637726      -0.06612684
F       -0.53873164       1.22176184       0.03077431       0.00107426       0.00730725      -0.04887489
Cl       0.84168248      -3.29401725      -0.40545879       0.00861758      -0.03887533       0.02209609
H       -0.25788008      -0.60773349      -0.80133840       0.00564981      -0.02509189       0.01686534
H       -0.23703930      -0.55727922       0.95923355      -0.00124715       0.03818007       0.01840904
H        1.85717050       1.02784912       0.62400384       0.01001489      -0.03446373       0.06231593
H        1.96830834       0.26534136      -0.97504267      -0.01458145       0.07746077      -0.00280042
9
Lattice="1.0 0.0 0.0 0.0 1.0 0.0 0.0 0.0 1.0" Properties=species:S:1:pos:R:3:forces:R:3 R1=H R2=H R3=CH3 R4=CH3 leaving_group=Cl nucleophile=Cl rxn=sn2 config=rcc label=H_H_CH3_CH3_Cl_Cl_sn2_rcc conformation=0 reactant_id=H_H_CH3_CH3_Cl_none_-_r product_id=H_H_CH3_CH3_none_Cl_sn2_pc mp2_author_energy=-29302.391748605172 mp2_my_energy=0 hash=59123 address=T id=71 energy=-17372.215329369847 free_energy=-17372.215329369847 cell="(1,0,0), (0,1,0), (0,0,1)" stress="1.5067106700382724e-08 1.443367568847572e-08 -5.6984266787902035e-09 1.443367568847572e-08 -2.118436286494836e-07 1.2960286551077733e-08 -5.6984266787902035e-09 1.2960286551077733e-08 -8.686143542034432e-09" pbc="F F F"
C        0.09194413      -0.05623024       0.05932186      -0.00023446       0.01204701       0.00073453
C        1.59759431       0.13248742       0.04497085      -0.00247795       0.01011139      -0.00021365
H        2.07807285      -0.67555380       0.59322999      -0.00977457      -0.04316632      -0.05717230
F       -0.54015852       1.20999471       0.12209586      -0.00430595       0.01419707      -0.05225286
Cl       0.83001351      -3.22490264      -0.45191199       0.00903515      -0.07022208       0.01188723
H       -0.27000409      -0.55988520      -0.83139498       0.00663357      -0.02732643       0.01769382
H       -0.23588988      -0.62604780       0.92634346       0.00059448       0.04358530       0.02469986
H        1.83890828       1.09372613       0.50449988       0.01541507      -0.01930473       0.06828595
H        1.99541092       0.11567701      -0.96974248      -0.01488534       0.08007880      -0.01366257
9
Lattice="1.0 0.0 0.0 0.0 1.0 0.0 0.0 0.0 1.0" Properties=species:S:1:pos:R:3:forces:R:3 R1=H R2=H R3=CH3 R4=CH3 leaving_group=Cl nucleophile=Cl rxn=sn2 config=rcc label=H_H_CH3_CH3_Cl_Cl_sn2_rcc conformation=0 reactant_id=H_H_CH3_CH3_Cl_none_-_r product_id=H_H_CH3_CH3_none_Cl_sn2_pc mp2_author_energy=-29302.391748605172 mp2_my_energy=0 hash=59123 address=T id=71 energy=-17372.143557451534 free_energy=-17372.143557451534 cell="(1,0,0), (0,1,0), (0,0,1)" stress="1.7347649787897813e-08 7.682874062604733e-08 1.1766569246135397e-08 7.682874062604733e-08 -5.81324842019974e-07 -1.0670594776427798e-07 1.1766569246135397e-08 -1.0670594776427798e-07 4.116737361834989e-09" pbc="F F F"
C        0.09145078      -0.08468300       0.05856997      -0.01598225       0.06327407       0.01186060
C        1.60325626       0.10664514       0.04606413      -0.01479911       0.04160181       0.00752957
H        2.10091224      -0.56234657       0.74552852      -0.06933587      -0.02751601      -0.01729458
F       -0.52890913       1.17667516       0.25822927      -0.04176791       0.02748097      -0.01607168
Cl       0.81327474      -3.05418015      -0.48917316       0.06137199      -0.18263381      -0.03465010
H       -0.28918443      -0.48625638      -0.87587724       0.01546329      -0.00189790       0.02279665
H       -0.23893306      -0.73536611       0.86397676       0.00935711       0.03880297       0.00419623
H        1.80084129       1.14563769       0.32404070       0.11076372       0.02587991       0.02489057
H        2.03318283      -0.09686019      -0.93394649      -0.05507098       0.01500800      -0.00325728
9
Lattice="1.0 0.0 0.0 0.0 1.0 0.0 0.0 0.0 1.0" Properties=species:S:1:pos:R:3:forces:R:3 R1=H R2=H R3=CH3 R4=CH3 leaving_group=Cl nucleophile=Cl rxn=sn2 config=rcc label=H_H_CH3_CH3_Cl_Cl_sn2_rcc conformation=0 reactant_id=H_H_CH3_CH3_Cl_none_-_r product_id=H_H_CH3_CH3_none_Cl_sn2_pc mp2_author_energy=-29302.391748605172 mp2_my_energy=0 hash=59123 address=T id=71 energy=-17371.94590497014 free_energy=-17371.94590497014 cell="(1,0,0), (0,1,0), (0,0,1)" stress="4.461578501028893e-07 -3.678062768832829e-07 -5.6587961521612273e-08 -3.678062768832829e-07 -2.4649273362902587e-06 -5.352256987947166e-07 -5.6587961521612273e-08 -5.352256987947166e-07 2.36828500435467e-07" pbc="F F F"
C        0.10775696      -0.15017928       0.04678097      -0.27777801       0.68786120       0.12288856
C        1.61848104       0.06298714       0.03858154      -0.12375346       0.24461363       0.04259408
H        2.17217507      -0.52730587       0.77079726      -0.32834247      -0.04357473      -0.03509325
F       -0.48550946       1.14789385       0.28122987       0.02190261      -0.22371563      -0.03220987
Cl       0.75155007      -2.86439453      -0.45780459       0.17178341      -0.75790187      -0.14438463
H       -0.30636399      -0.47929539      -0.90066044       0.10495904      -0.11507825       0.12005624
H       -0.24907322      -0.77846043       0.85754557       0.08630689      -0.02332025      -0.14825401
H        1.68572346       1.12076798       0.28858185       0.60420548       0.26415838       0.04386549
H        2.09115159      -0.12274788      -0.92763958      -0.25928349      -0.03304247       0.03053739
9
Lattice="1.0 0.0 0.0 0.0 1.0 0.0 0.0 0.0 1.0" Properties=species:S:1:pos:R:3:forces:R:3 R1=H R2=H R3=CH3 R4=CH3 leaving_group=Cl nucleophile=Cl rxn=sn2 config=rcc label=H_H_CH3_CH3_Cl_Cl_sn2_rcc conformation=0 reactant_id=H_H_CH3_CH3_Cl_none_-_r product_id=H_H_CH3_CH3_none_Cl_sn2_pc mp2_author_energy=-29302.391748605172 mp2_my_energy=0 hash=59123 address=T id=71 energy=-17371.44437341777 free_energy=-17371.44437341777 cell="(1,0,0), (0,1,0), (0,0,1)" stress="1.1424895339338692e-06 -1.46893864710018e-06 -2.5099261439994763e-07 -1.46893864710018e-06 -1.7805890151156814e-06 -4.793912047510566e-07 -2.5099261439994763e-07 -4.793912047510566e-07 3.756659179242254e-07" pbc="F F F"
C        0.14914517      -0.25271423       0.02862266      -1.01197687       2.55123648       0.46048142
C        1.63691216       0.02653833       0.03220170      -0.21620559       0.29670979       0.05111585
H        2.22089813      -0.52004892       0.77678972      -0.35125358      -0.05272284      -0.05505724
F       -0.48878364       1.18110201       0.28678259       0.61603505      -1.39043651      -0.22748018
Cl       0.72595695      -2.75135490      -0.43686209       0.21162003      -1.09256210      -0.20595813
H       -0.32206721      -0.46177029      -0.91860711       0.15969344      -0.35375831       0.09453018
H       -0.26189004      -0.77528753       0.87943128       0.13916000      -0.23143241      -0.22030586
H        1.59566788       1.08166390       0.28090385       0.72394625       0.33658322       0.05737819
H        2.13005212      -0.11886278      -0.93185016      -0.27101873      -0.06361732       0.04529578
9
Lattice="1.0 0.0 0.0 0.0 1.0 0.0 0.0 0.0 1.0" Properties=species:S:1:pos:R:3:forces:R:3 R1=H R2=H R3=CH3 R4=CH3 leaving_group=Cl nucleophile=Cl rxn=sn2 config=rcc label=H_H_CH3_CH3_Cl_Cl_sn2_rcc conformation=0 reactant_id=H_H_CH3_CH3_Cl_none_-_r product_id=H_H_CH3_CH3_none_Cl_sn2_pc mp2_author_energy=-29302.391748605172 mp2_my_energy=0 hash=59123 address=T id=71 energy=-17370.873574733538 free_energy=-17370.873574733538 cell="(1,0,0), (0,1,0), (0,0,1)" stress="8.631608275905187e-07 -1.7596898386779337e-06 -3.090300307107176e-07 -1.7596898386779337e-06 -1.799759196741854e-07 -1.0538579877068266e-07 -3.090300307107176e-07 -1.0538579877068266e-07 3.227181955264445e-08" pbc="F F F"
C        0.19130076      -0.35897128       0.00934791      -1.02024016       2.85039629       0.52254183
C        1.64590672       0.01417950       0.03008849      -0.11200407       0.20242585       0.03198798
H        2.23543475      -0.51764449       0.77926431      -0.22204513      -0.04503638      -0.02961119
F       -0.51445508       1.23898835       0.29649056       0.70567622      -1.58577783      -0.26655411
Cl       0.71714205      -2.70583406      -0.42843536       0.17222403      -0.90182564      -0.17093404
H       -0.32870701      -0.44694798      -0.92249071       0.06189154      -0.37222852      -0.07464555
H       -0.26768414      -0.76574036       0.88860637       0.05600295      -0.32328612      -0.06996736
H        1.56552263       1.06772086       0.27820923       0.52669177       0.22902939       0.03636077
H        2.14143083      -0.11648496      -0.93366836      -0.16819716      -0.05369704       0.02082168
9
Lattice="1.0 0.0 0.0 0.0 1.0 0.0 0.0 0.0 1.0" Properties=species:S:1:pos:R:3:forces:R:3 R1=H R2=H R3=CH3 R4=CH3 leaving_group=Cl nucleophile=Cl rxn=sn2 config=rcc label=H_H_CH3_CH3_Cl_Cl_sn2_rcc conformation=0 reactant_id=H_H_CH3_CH3_Cl_none_-_r product_id=H_H_CH3_CH3_none_Cl_sn2_pc mp2_author_energy=-29302.391748605172 mp2_my_energy=0 hash=59123 address=T id=71 energy=-17370.51132983542 free_energy=-17370.51132983542 cell="(1,0,0), (0,1,0), (0,0,1)" stress="4.0835270379581e-07 -1.190022286978616e-06 -2.115344799069222e-07 -1.190022286978616e-06 8.25803538376741e-08 4.4380753820840015e-09 -2.115344799069222e-07 4.4380753820840015e-09 -1.5423160491718646e-07" pbc="F F F"
C        0.22266928      -0.44660325      -0.00667754      -0.58658669       1.78121462       0.32684983
C        1.64934718       0.00796039       0.02907947      -0.02675302       0.12415465       0.01900789
H        2.24219319      -0.51611332       0.78031441      -0.12893489      -0.02741127      -0.01165464
F       -0.53615513       1.28770950       0.30485930       0.41690226      -0.96119327      -0.16016467
Cl       0.71184576      -2.67809146      -0.42328660       0.11092884      -0.57261973      -0.10949613
H       -0.33062680      -0.43545374      -0.92021154      -0.00541655      -0.22434988      -0.11991806
H       -0.26938654      -0.75584063       0.89071477      -0.00373864      -0.22521931       0.02852380
H        1.54932709       1.06072899       0.27687050       0.32121895       0.13996830       0.01853242
H        2.14667748      -0.11503088      -0.93425031      -0.09762027      -0.03454412       0.00831956
9
Lattice="1.0 0.0 0.0 0.0 1.0 0.0 0.0 0.0 1.0" Properties=species:S:1:pos:R:3:forces:R:3 R1=H R2=H R3=CH3 R4=CH3 leaving_group=Cl nucleophile=Cl rxn=sn2 config=rcc label=H_H_CH3_CH3_Cl_Cl_sn2_rcc conformation=0 reactant_id=H_H_CH3_CH3_Cl_none_-_r product_id=H_H_CH3_CH3_none_Cl_sn2_pc mp2_author_energy=-29302.391748605172 mp2_my_energy=0 hash=59123 address=T id=71 energy=-17370.361699188605 free_energy=-17370.361699188605 cell="(1,0,0), (0,1,0), (0,0,1)" stress="5.8235883298559306e-08 -2.626785888525887e-07 -4.300531607052023e-08 -2.626785888525887e-07 -9.373178817705226e-08 -2.1928314922733847e-08 -4.300531607052023e-08 -2.1928314922733847e-08 -6.864778514877041e-08" pbc="F F F"
C        0.24972228      -0.52874438      -0.02176244      -0.12600765       0.39599143       0.07242207
C        1.65058125       0.00223775       0.02817729      -0.00256176       0.03346529       0.00478515
H        2.24803663      -0.51462640       0.78105824      -0.03455770      -0.00468258       0.00058704
F       -0.55539115       1.33199210       0.31251747       0.07890731      -0.18760586      -0.02598523
Cl       0.70672715      -2.65165415      -0.41838906       0.03475802      -0.15860922      -0.03255300
H       -0.33039215      -0.42503421      -0.91468473      -0.00796078      -0.04973283      -0.03865816
H       -0.26919868      -0.74551673       0.88936702      -0.00652265      -0.05577838       0.01675768
H        1.53450362       1.05434579       0.27568453       0.08692787       0.04097662      -0.00006540
H        2.15130256      -0.11373418      -0.93455587      -0.02298267      -0.01402445       0.00270986
9
Lattice="1.0 0.0 0.0 0.0 1.0 0.0 0.0 0.0 1.0" Properties=species:S:1:pos:R:3:forces:R:3 R1=H R2=H R3=CH3 R4=CH3 leaving_group=Cl nucleophile=Cl rxn=sn2 config=rcc label=H_H_CH3_CH3_Cl_Cl_sn2_rcc conformation=0 reactant_id=H_H_CH3_CH3_Cl_none_-_r product_id=H_H_CH3_CH3_none_Cl_sn2_pc mp2_author_energy=-29302.391748605172 mp2_my_energy=0 hash=59123 address=T id=71 energy=-17370.373872107382 free_energy=-17370.373872107382 cell="(1,0,0), (0,1,0), (0,0,1)" stress="-2.8262139820284302e-08 3.073824582059595e-07 6.269580446422024e-08 3.073824582059595e-07 2.857170455908624e-07 2.7363111272098016e-08 6.269580446422024e-08 2.7363111272098016e-08 1.1741221786239218e-07" pbc="F F F"
C        0.27341694      -0.60600253      -0.03601252       0.14615709      -0.47634322      -0.08846507
C        1.65038316      -0.00548464       0.02691046      -0.00121076      -0.04754619      -0.00846493
H        2.25517980      -0.51228103       0.78186970       0.04167180       0.01927781       0.00939235
F       -0.56801244       1.36284392       0.31775520      -0.07804121       0.18922948       0.03847979
Cl       0.69782547      -2.61397701      -0.41145757      -0.05497260       0.23298810       0.03970703
H       -0.32755114      -0.41484094      -0.90468735       0.01720736       0.06419928       0.06153619
H       -0.26663011      -0.73387185       0.88369384       0.01616576       0.07073826      -0.03565045
H        1.51423779       1.04485151       0.27401311      -0.12522706      -0.05703231      -0.01742804
H        2.15704203      -0.11197183      -0.93467242       0.03824961       0.00448878       0.00089312
9
Lattice="1.0 0.0 0.0 0.0 1.0 0.0 0.0 0.0 1.0" Properties=species:S:1:pos:R:3:forces:R:3 R1=H R2=H R3=CH3 R4=CH3 leaving_group=Cl nucleophile=Cl rxn=sn2 config=rcc label=H_H_CH3_CH3_Cl_Cl_sn2_rcc conformation=0 reactant_id=H_H_CH3_CH3_Cl_none_-_r product_id=H_H_CH3_CH3_none_Cl_sn2_pc mp2_author_energy=-29302.391748605172 mp2_my_energy=0 hash=59123 address=T id=71 energy=-17370.476970347605 free_energy=-17370.476970347605 cell="(1,0,0), (0,1,0), (0,0,1)" stress="6.14748840183252e-08 6.027174736826926e-07 1.193781275906727e-07 6.027174736826926e-07 3.540244249874031e-07 1.725715479921184e-08 1.193781275906727e-07 1.725715479921184e-08 2.5406280798387187e-07" pbc="F F F"
C        0.29959726      -0.68670360      -0.05086710       0.19989221      -0.61594852      -0.11412994
C        1.65081306      -0.01851812       0.02460581       0.00329946      -0.09940365      -0.01831495
H        2.26669083      -0.50781916       0.78353879       0.08538253       0.03881130       0.01700261
F       -0.58236030       1.40162869       0.32420825      -0.10974271       0.29499184       0.05562601
Cl       0.68367608      -2.57206288      -0.40392063      -0.10810328       0.32057926       0.05472500
H       -0.31841814      -0.40440866      -0.88834288       0.06940490       0.08077472       0.12458460
H       -0.25798768      -0.72072826       0.87228927       0.06629907       0.09949460      -0.08770551
H        1.47742996       1.02680479       0.27079876      -0.28123603      -0.13627071      -0.03158347
H        2.16645044      -0.10892722      -0.93489782       0.07480385       0.01697117      -0.00020436
9
Lattice="1.0 0.0 0.0 0.0 1.0 0.0 0.0 0.0 1.0" Properties=species:S:1:pos:R:3:forces:R:3 R1=H R2=H R3=CH3 R4=CH3 leaving_group=Cl nucleophile=Cl rxn=sn2 config=rcc label=H_H_CH3_CH3_Cl_Cl_sn2_rcc conformation=0 reactant_id=H_H_CH3_CH3_Cl_none_-_r product_id=H_H_CH3_CH3_none_Cl_sn2_pc mp2_author_energy=-29302.391748605172 mp2_my_energy=0 hash=59123 address=T id=71 energy=-17370.568781440277 free_energy=-17370.568781440277 cell="(1,0,0), (0,1,0), (0,0,1)" stress="1.3133615860581313e-07 3.9760997603797295e-07 7.986149382087769e-08 3.9760997603797295e-07 -3.071889224398409e-07 -8.318429296599317e-08 7.986149382087769e-08 -8.318429296599317e-08 9.886236728106979e-08" pbc="F F F"
C        0.32683487      -0.74937681      -0.06214480       0.09284554      -0.21348642      -0.03926933
C        1.65422993      -0.03707718       0.02108889       0.01166326      -0.06313312      -0.01279799
H        2.28538340      -0.49453068       0.78861198       0.06113828       0.04968553       0.02110448
F       -0.59385687       1.46506635       0.33449571      -0.03940850       0.21495702       0.04153453
Cl       0.66035876      -2.56118257      -0.40356038      -0.07950204       0.03771720      -0.00094911
H       -0.29822081      -0.39589675      -0.86990669       0.06851903       0.02970811       0.06243146
H       -0.23737405      -0.71224803       0.85954666       0.07048818       0.02860824      -0.04413315
H        1.40583944       0.99543517       0.26375395      -0.24411371      -0.10548412      -0.03062986
H        2.18269684      -0.10092389      -0.93447286       0.05836995       0.02142756       0.00270897
9
Lattice="1.0 0.0 0.0 0.0 1.0 0.0 0.0 0.0 1.0" Properties=species:S:1:pos:R:3:forces:R:3 R1=H R2=H R3=CH3 R4=CH3 leaving_group=Cl nucleophile=Cl rxn=sn2 config=rcc label=H_H_CH3_CH3_Cl_Cl_sn2_rcc conformation=0 reactant_id=H_H_CH3_CH3_Cl_none_-_r product_id=H_H_CH3_CH3_none_Cl_sn2_pc mp2_author_energy=-29302.391748605172 mp2_my_energy=0 hash=59123 address=T id=71 energy=-17370.60564203422 free_energy=-17370.60564203422 cell="(1,0,0), (0,1,0), (0,0,1)" stress="1.4616422558611475e-07 7.688768810723409e-08 1.7282969513851422e-08 7.688768810723409e-08 -3.110617383864448e-07 -7.078803789773143e-08 1.7282969513851422e-08 -7.078803789773143e-08 3.1374040400996216e-09" pbc="F F F"
C        0.34421674      -0.78299453      -0.06762794       0.03144757      -0.06062882      -0.01087199
C        1.65587234      -0.04824968       0.01903143       0.00298644      -0.02008264      -0.00465992
H        2.29723747      -0.47257451       0.79754757       0.01894010       0.04346634       0.01922573
F       -0.58360873       1.52310568       0.34312943       0.01836441       0.10389416       0.02236481
Cl       0.63654761      -2.57662653      -0.41149459      -0.04304180      -0.02762232      -0.01543324
H       -0.28085907      -0.39565269      -0.86037158       0.03129775       0.00040038       0.01621311
H       -0.21681730      -0.71883762       0.85515687       0.03726788      -0.01138405      -0.00891911
H        1.33839036       0.97109458       0.25416869      -0.12223519      -0.04286812      -0.02307538
H        2.19491210      -0.08999911      -0.93212744       0.02497284       0.01482507       0.00515600
9
Lattice="1.0 0.0 0.0 0.0 1.0 0.0 0.0 0.0 1.0" Properties=species:S:1:pos:R:3:forces:R:3 R1=H R2=H R3=CH3 R4=CH3 leaving_group=Cl nucleophile=Cl rxn=sn2 config=rcc label=H_H_CH3_CH3_Cl_Cl_sn2_rcc conformation=0 reactant_id=H_H_CH3_CH3_Cl_none_-_r product_id=H_H_CH3_CH3_none_Cl_sn2_pc mp2_author_energy=-29302.391748605172 mp2_my_energy=0 hash=59123 address=T id=71 energy=-17370.62025278284 free_energy=-17370.62025278284 cell="(1,0,0), (0,1,0), (0,0,1)" stress="7.18711918308874e-08 -1.4289644557068608e-08 -1.6388633000816763e-09 -1.4289644557068608e-08 -1.037481169447047e-07 -2.626848182843575e-08 -1.6388633000816763e-09 -2.626848182843575e-08 -7.670040523434761e-09" pbc="F F F"
C        0.35397644      -0.81056920      -0.06849911       0.00432316      -0.01210708      -0.00176029