14
Properties=species:S:1:pos:R:3:mp2_forces:R:3:forces:R:3 R1=NO2 R2=NH2 R3=H R4=CN lg=Br nu=Cl rxn-id=1108 mp2_energy=-94236.46704708227 energy=-94235.14597491027 free_energy=-94236.46704907104 pbc="F F F"
C        1.12457079      -0.07198926      -0.03753815       0.02510408       0.00820851       0.00203247      -0.02567314      -0.00033169       0.00360244
C        1.08095028       1.44927598      -0.02391361       0.01487473      -0.02018547      -0.00658985       0.00061693      -0.00007812       0.00108656
H        2.04868160       1.80562488       0.32789490       0.00285159      -0.03621305      -0.03194252       0.00295201      -0.00055162      -0.00257993
Br      -1.35097256      -0.23142727       0.11286940      -0.00324141       0.03671925      -0.01890430      -0.01835740       0.00171183       0.00034926
Cl       3.44447331      -0.07398693      -0.52799906       0.03315947       0.03051262       0.08859251       0.04603075      -0.00008823      -0.00679560
H        0.32993845       1.73613659       0.71157892       0.00316132      -0.03595727      -0.01608700       0.00419298       0.00592846       0.00363775
N        1.00492269      -0.90102934      -1.30993592       0.02106494      -0.02683282       0.03512517       0.00211956      -0.00120511      -0.00160566
O        0.86784715      -0.31077975      -2.36836616      -0.02568022       0.00939527      -0.01992728      -0.00290218      -0.00479057      -0.00352689
O        1.06033521      -2.11219463      -1.15203090      -0.06305001       0.02392772      -0.00729589       0.00452143      -0.00073826       0.00002321
N        1.33071942      -0.71826048       1.19567541       0.02342202       0.01132323      -0.00032040      -0.00709007      -0.00231753      -0.00311661
H        2.17736220      -1.26784453       1.14609960       0.03219887      -0.00914810       0.00498736       0.00148084       0.00807534      -0.00003517
H        0.53930029      -1.30793278       1.40836184      -0.00462828       0.01859007      -0.04507550      -0.00381654      -0.00492932       0.00361315
C        0.77262880       2.14763628      -1.26614400      -0.04683168       0.04213998      -0.06252536      -0.00072782      -0.00133227       0.00110512
N        0.54046591       2.84375128      -2.18211274      -0.01240543      -0.05247993       0.07793061      -0.00334735       0.00064708       0.00424238
13
Properties=species:S:1:pos:R:3:mp2_forces:R:3:forces:R:3 R1=NO2 R2=H R3=CN R4=CN lg=Cl nu=Cl rxn-id=918 mp2_energy=-37735.580111661155 energy=-37734.492646818755 free_energy=-37735.580121463325 pbc="F F F"
C        0.91952152      -0.09670849       0.05549575       0.00778271       0.00801855      -0.03515310       0.00173277       0.00097362      -0.00088180
C        1.06076630       1.41717955      -0.03552410       0.02971601       0.01946260       0.02386053       0.00190945       0.00176082      -0.00181175
H        2.11520895       1.64165795      -0.21807575       0.00913057       0.06561446      -0.01383129       0.00294003       0.00104217       0.00043052
Cl      -1.36178653      -0.05610537      -0.35302657      -0.02456139      -0.02339000       0.02962216       0.00009740      -0.00267349      -0.00449029
Cl       2.98002246      -0.40837943       0.84091556       0.02411526       0.03164376       0.02875614      -0.00124882       0.00495963      -0.00444386
H        0.57702029      -0.64915578       0.90656328      -0.01837047      -0.03895568       0.01579788      -0.00282291       0.00393377      -0.00001221
N        1.18409230      -0.85000250      -1.18062447       0.00127758      -0.01553791       0.00521980      -0.00046589      -0.00415457       0.00089674
O        1.57744529      -0.19344857      -2.14246249      -0.02695938       0.00412353      -0.01496551      -0.00751503      -0.00901354      -0.00525732
O        1.02083744      -2.06058801      -1.14290416      -0.04324858       0.01801665      -0.02795711       0.00568581      -0.00469944       0.00970493
C        0.70994835       1.99344541       1.26492845       0.03448778      -0.05706379      -0.03360899       0.00038893      -0.00219987      -0.00037917
N        0.45768159       2.48577492       2.30009772      -0.04012469       0.02337451       0.01229725      -0.00384782      -0.00567102       0.00080744
C        0.31463539       2.09974918      -1.10171693      -0.00139840       0.03061029      -0.02685421       0.00279879       0.00515235       0.00143264
N       -0.12181895       2.80341938      -1.93476549       0.04815299      -0.06591696       0.03681645       0.00034729       0.01058956       0.00400412
19
Properties=species:S:1:pos:R:3:mp2_forces:R:3:forces:R:3 R1=CH3 R2=CH3 R3=NH2 R4=NO2 lg=Br nu=Br rxn-id=2285 mp2_energy=-151367.59022929455 energy=-151366.35089339208 free_energy=-151367.59022929455 pbc="F F F"
C        1.40708238      -0.10005442      -0.03387768      -0.04113694      -0.07061562       0.00479059       0.01647268       0.00061905      -0.00100539
C        1.50249778       1.41417166       0.05281195      -0.04215996       0.05084858      -0.06888362       0.00613715       0.00284216       0.00093849
H        2.57405402       1.64641222       0.10410051      -0.07479598       0.02832276       0.00040543       0.00465619       0.01222820       0.00977897
Br      -2.35660590       0.54918711       0.97748462       0.02055123       0.07224414      -0.02575087      -0.00609817      -0.01433152       0.01541345
Br       5.05559950      -0.64732686      -0.10591799      -0.00071101       0.07831591      -0.02288791      -0.00280457      -0.01175305      -0.00279834
C        1.11219391      -0.79096734      -1.30525673      -0.01956144       0.01734206       0.04693915      -0.00402204       0.00649581       0.00051231
H        0.08041323      -0.53773528      -1.58054594       0.01299824       0.02201452       0.05583096      -0.00921551       0.01396068       0.01606766
H        1.78701253      -0.47358291      -2.09830963      -0.03213691      -0.01885579       0.01295279      -0.01216057       0.00655829      -0.00972930
H        1.18949041      -1.86945632      -1.16746666       0.02585616       0.00225861      -0.02550218      -0.00825959       0.00504624      -0.00304870
C        1.29626594      -0.82823878       1.24800168      -0.01822516      -0.01751005      -0.00710054       0.00539983       0.00216074       0.00061995
H        1.79723547      -1.79367798       1.15524079      -0.00948129      -0.00163067       0.04142626      -0.00716027      -0.00781824       0.00376913
H        1.71631032      -0.25618408       2.07084149       0.06580047      -0.00963452       0.02083714       0.01346567      -0.00128859      -0.00063756
H        0.22224503      -0.96692540       1.43617405      -0.01936408      -0.02643663      -0.00803684      -0.00060362       0.01833548       0.00004852
N        0.80410529       1.93952478       1.15834241      -0.02361498      -0.05219590       0.04085009      -0.00827129      -0.00277839      -0.00477886
H       -0.19586000       1.72102240       1.12857452       0.02867702      -0.00916813      -0.02620922      -0.00647656      -0.01240025      -0.00930048
H        0.94092878       2.93805219       1.23129262       0.03234060      -0.02319130      -0.00691070      -0.01775596      -0.00122729      -0.00270268
N        1.10661586       2.03184333      -1.31315118       0.04620204       0.03710570      -0.02708075       0.01131200      -0.00309952      -0.00313082
O        0.02524519       2.60756509      -1.38346806      -0.00345008      -0.05207837       0.03999998       0.00140387      -0.02325059      -0.01655983
O        1.92652122       1.92126595      -2.22256373       0.05221217      -0.02713530      -0.04566977       0.02398076       0.00970079       0.00654349
15
Properties=species:S:1:pos:R:3:mp2_forces:R:3:forces:R:3 R1=NO2 R2=H R3=CH3 R4=CN lg=Br nu=Cl rxn-id=946 mp2_energy=-93799.9579575287 energy=-93799.07299371758 free_energy=-93799.95795001902 pbc="F F F"
C        0.83350202      -0.03488901       0.02378083       0.00349967      -0.01482355       0.00479280      -0.00047425       0.00137828      -0.00143820
C        0.89540622       1.47666064      -0.05863765       0.00719126      -0.01441776      -0.00539729       0.00053307       0.00166484      -0.00255504
H        1.93503438       1.73684351      -0.26905330       0.01151368      -0.03408870       0.00648714       0.00033453       0.00312845      -0.00196376
Br      -1.61131543      -0.24999796      -0.34541694      -0.01278391       0.03414022       0.00116303       0.00532315       0.00244178      -0.00947703
Cl       2.94221352      -0.26079943       0.85668772      -0.01276614       0.02649639       0.06649492       0.00026554       0.00438332      -0.00305782
H        0.54025360      -0.60755440       0.87992559       0.05415168      -0.00075541      -0.00676881      -0.00063115       0.00429384       0.00057865
N        1.15770735      -0.80547522      -1.18940260       0.02302002       0.00049057       0.01051354      -0.00108716      -0.00581525       0.00322340
O        1.52241658      -0.15428472      -2.16742440      -0.01237964      -0.00350629      -0.03010766      -0.01643713      -0.01127048      -0.00576804
O        1.06934193      -2.02445175      -1.12668709      -0.02052668      -0.00359350      -0.03959374       0.01167358      -0.00595267       0.01546667
C        0.49949356       2.07570963       1.29175803       0.00004229       0.00650586      -0.01311445      -0.00038022      -0.00262546      -0.00054542
H       -0.53860151       1.82981154       1.51708709      -0.00073448       0.02052751      -0.00546954       0.00014864      -0.00574530      -0.00145151
H        1.15483027       1.67405597       2.06552050      -0.00489545      -0.00571474      -0.02221676       0.00001488      -0.00486575      -0.00205483
H        0.61052292       3.16146445       1.26241376       0.01656477       0.00708620       0.04442392      -0.00333892      -0.00220930       0.00441778
C        0.12331410       2.09067603      -1.14452364      -0.03860358       0.01838442      -0.04917023       0.00064881       0.00663559      -0.00063537
N       -0.37819202       2.75668891      -1.97262255      -0.01329349      -0.03673122       0.03796313       0.00340664       0.01455811       0.00526052
17
Properties=species:S:1:pos:R:3:mp2_forces:R:3:forces:R:3 R1=H R2=CH3 R3=CH3 R4=NH2 lg=Br nu=Cl rxn-id=669 mp2_energy=-88308.19840736475 energy=-88307.35088729528 free_energy=-88308.19840605545 pbc="F F F"
C        0.87642918       0.01039800       0.04480004       0.00264404      -0.02546440      -0.00140422       0.00303649      -0.00263218      -0.00323984
C        0.95422583       1.51793152       0.03651618       0.02720807      -0.00295906       0.01093284       0.00267989       0.00020956      -0.00067995
H        2.02656293       1.73110578       0.03989060       0.02109353       0.05716342      -0.03774306      -0.00141301       0.00162872       0.00097894
Br      -1.68496156      -0.21047201      -0.06540655       0.00659148       0.01885043       0.03958424       0.01205159       0.00718878       0.00175221
Cl       3.22425174      -0.44965692      -0.58505444       0.03045460       0.04993148       0.02915920      -0.01569555       0.00496088       0.00730315
H        0.77047896      -0.48842482      -0.89890868      -0.04022148       0.01630309      -0.05637411      -0.00110350       0.00010291      -0.00201772
C        1.02255888      -0.74129331       1.33522836      -0.01479141      -0.00104772       0.03845712       0.00053649      -0.00162785      -0.00137433
H        1.95522224      -0.45128100       1.82106142       0.00555905      -0.03843515      -0.03047418      -0.00251520       0.00202097       0.00066674
H        0.18805778      -0.52602137       2.00111069      -0.05015182       0.03085756       0.03172617      -0.00244589      -0.00601899      -0.00406512
H        1.05785294      -1.81170981       1.14108835      -0.01222207       0.00962019      -0.00293191       0.00644917      -0.00158015      -0.00054926
C        0.36145324       2.17315742       1.28945412       0.00707383       0.00209040      -0.00736878      -0.00003427      -0.00047732       0.00039152
H       -0.70922096       1.97678952       1.35788255      -0.00149967      -0.06807950      -0.03642497       0.00047751       0.00345585       0.00033277
H        0.84805696       1.81965826       2.20304990      -0.01136181      -0.04901491      -0.01997515      -0.00189494      -0.00024236       0.00139139
H        0.52228013       3.25529638       1.22704698       0.01168598       0.01492150      -0.04685483       0.00281426       0.00010061      -0.00157327
N        0.42462990       2.03020147      -1.22343671       0.00217547      -0.01226410       0.03619210      -0.00963761      -0.01116573       0.00098173
H        0.55338452       3.03544196      -1.24675987       0.02492597      -0.01756237      -0.02154599       0.00190396       0.00341701      -0.00480911
H       -0.57191205       1.83395637      -1.23910287      -0.00916378       0.01508915       0.07504553       0.00479062       0.00065928       0.00451015
15
Properties=species:S:1:pos:R:3:mp2_forces:R:3:forces:R:3 R1=CN R2=H R3=CH3 R4=NO2 lg=Cl nu=Cl rxn-id=1300 mp2_energy=-36296.982485994035 energy=-36296.011220042994 free_energy=-36296.98248395324 pbc="F F F"
C        0.89477469      -0.01968585      -0.00180027       0.03755082      -0.00651365       0.00488505       0.00201106       0.00404719       0.00137020
C        0.93084376       1.49818373      -0.05838897      -0.01340405      -0.01032749      -0.00522535      -0.00119583       0.00259482      -0.00008983
H        1.93622294       1.79570978      -0.35766149      -0.02978478      -0.03577210      -0.00668125      -0.00196134       0.00430983       0.00039632
Cl      -1.45928931      -0.19419117      -0.19660340       0.04843378       0.04092836      -0.01272852       0.00441571       0.00005030      -0.01948400
Cl       3.05050592      -0.19390884       0.73945054      -0.00912936       0.03248932       0.08665307       0.00193443       0.00332881      -0.01096824
H        0.64031840      -0.51644608       0.91384671       0.04890866      -0.03043202      -0.00662234       0.00117947       0.00400958      -0.00118673
C        1.11280739      -0.81466014      -1.17521559      -0.03753417      -0.02329568      -0.02780549       0.00387551      -0.01864885      -0.01462011
N        1.32612830      -1.47854867      -2.12398349      -0.03664978       0.02932211      -0.00830382      -0.00546077      -0.01190774       0.02705421
C        0.55684131       2.10818970       1.27095262       0.00423491       0.00080106      -0.00713516      -0.00053422      -0.00113792       0.00169995
H       -0.47139723       1.85033031       1.52078092       0.00604680       0.01453838      -0.00534995       0.00043150      -0.00147381       0.00425114
H        1.23764261       1.71366878       2.02667036       0.00052048      -0.00433049      -0.00691384       0.00062536      -0.00052338       0.00067050
H        0.65450780       3.19323630       1.23747622       0.01840592       0.00275912       0.02744538      -0.00265544      -0.00136579       0.00231056
N        0.09129410       2.05937089      -1.18798415      -0.01026473      -0.01067988      -0.01025147      -0.00124414       0.00467139       0.00233261
O       -0.71167268       2.94992703      -0.93157411      -0.01420559      -0.01578349      -0.00351119       0.00151689       0.00625244       0.00486665
O        0.35853201       1.64704882      -2.31149172      -0.01312889       0.01629646      -0.01845511      -0.00293820       0.00579313       0.00139674
13
Properties=species:S:1:pos:R:3:mp2_forces:R:3:forces:R:3 R1=CH3 R2=H R3=CN R4=H lg=F nu=Cl rxn-id=1808 mp2_energy=-20945.00614547083 energy=-20943.107015964437 free_energy=-20945.006144246046 pbc="F F F"
C        1.13777641      -0.03993702       0.00000270       0.00155003      -0.03462642      -0.00321634      -0.03084898       0.00203810      -0.00917811
C        0.99366688       1.46406677      -0.03965867      -0.01174224      -0.02219890      -0.01152622      -0.00269914       0.00330310      -0.00311220
H        1.90547020       1.93555099      -0.41362733      -0.00514626      -0.02356470       0.05520905       0.00208815       0.00071330       0.00592771
F       -0.87706759      -0.09671419      -0.15832088       0.03938789       0.03754787       0.02055332       0.01389933       0.00395056       0.00145157
Cl       3.21137205      -0.14129993       0.65281408       0.03230439       0.03035875      -0.03362230       0.02955580       0.00013162       0.00519143
H        0.82271567      -0.57920264       0.86963186       0.03534159       0.02451927       0.01786068      -0.00189906       0.00074171       0.00340970
H        0.15301955       1.67280553      -0.70045316      -0.01177630      -0.00082586      -0.02027999      -0.00064003       0.00958928      -0.00567682
C        1.29573321      -0.73656580      -1.32275565      -0.01346621      -0.01135322      -0.01236905      -0.00471969      -0.00150880      -0.00269624
H        0.33794922      -0.67021286      -1.83291277       0.01957606       0.05890481      -0.00475255      -0.00556622      -0.00627586      -0.00397792
H        2.09211607      -0.27409576      -1.91031408       0.01829279      -0.06193367       0.05083795      -0.00026223      -0.00518368       0.00079921
H        1.55892172      -1.78316102      -1.16817742      -0.05786049       0.00139115      -0.04326304       0.00367340       0.00286010       0.00618274
C        0.68117030       2.03847703       1.26454676      -0.01412178      -0.02004568      -0.01409239      -0.00077690      -0.00252057       0.00150340
N        0.43861156       2.54781303       2.29333294      -0.03233949       0.02182660      -0.00133911      -0.00180442      -0.00783885       0.00017552
14
Properties=species:S:1:pos:R:3:mp2_forces:R:3:forces:R:3 R1=NO2 R2=H R3=H R4=CH3 lg=Br nu=Cl rxn-id=876 mp2_energy=-91294.06677935288 energy=-91293.28382107549 free_energy=-91294.06677184919 pbc="F F F"
C        0.84841687      -0.02559251      -0.03038252       0.03290504       0.02595864      -0.04574274       0.00380948      -0.00038470      -0.00091308
C        1.08119327       1.45285605      -0.20530076       0.04637425       0.02039649       0.03817023       0.00046086       0.00023472      -0.00029223
H        2.08942421       1.54922860      -0.60477199       0.04331527       0.01268493       0.01010468       0.00094044       0.00091599       0.00131137
Br      -1.62138913      -0.21247215      -0.30343880       0.04852060       0.01912154      -0.00518978      -0.00273974      -0.00527719      -0.01025594
Cl       3.00853702      -0.41898371       0.79313543       0.00478337       0.01863775       0.05835553      -0.00292077       0.00420867      -0.00408400
H        0.58262485      -0.54548470       0.86580681       0.00634838       0.01848005      -0.07754704      -0.00569795       0.00308390      -0.00200840
H        1.11372267       1.86314628       0.80754062      -0.01207982       0.04249635       0.05645941      -0.00067014      -0.00286666       0.00114736
N        1.08509856      -0.90804232      -1.19096349      -0.02745356       0.00924888      -0.01593921       0.00176974      -0.00184967      -0.00008075
O        1.41098519      -0.35971626      -2.24497460      -0.07543075       0.03895600       0.03517285      -0.00546933      -0.00528227      -0.00191310
O        0.95079932      -2.11365681      -1.02718096      -0.05882287      -0.05663854      -0.03719682       0.00878144      -0.00386138       0.00642235
C        0.14081174       2.26950327      -1.08796902       0.01068444      -0.04109019       0.01529301       0.00052683       0.00237456       0.00203340
H        0.02611875       1.80170069      -2.06364926       0.03153789      -0.02677625       0.01178720      -0.00805694      -0.00007570       0.00446996
H       -0.84687722       2.37552170      -0.64737530      -0.00375625      -0.05022210      -0.02436186       0.00405495       0.00921267       0.00825010
H        0.58129536       3.26315554      -1.22456396      -0.04692600      -0.03125354      -0.01936544       0.00521114      -0.00043295      -0.00408705
14
Properties=species:S:1:pos:R:3:mp2_forces:R:3:forces:R:3 R1=NH2 R2=CN R3=CN R4=CN lg=Cl nu=Cl rxn-id=2623 mp2_energy=-36188.81519176074 energy=-36187.41255020046 free_energy=-36188.81519578857 pbc="F F F"
C        1.27363114      -0.10051349       0.07612517       0.00795376      -0.01193009      -0.07465210      -0.00096320      -0.00024196      -0.00159175
C        1.26427145       1.44492946       0.04209060      -0.01709091      -0.01763822      -0.00716728      -0.00122774      -0.00071168      -0.00285262
H        2.30469260       1.77817840      -0.01161429      -0.02828987      -0.00274986       0.01061887       0.00069428      -0.00213932       0.00350226
Cl      -1.09769472      -0.07142869      -0.02359279       0.03307186       0.02848674       0.06368472      -0.00446499      -0.00226047       0.00249570
Cl       3.56604818      -0.19973581       0.41981465       0.03421077       0.02489237      -0.03137529       0.00102914      -0.00409798      -0.00167768
N        1.38271133      -0.75842358      -1.18100616      -0.02817945      -0.02777875      -0.02587834       0.00381687       0.00149015      -0.00083347
H        0.49440055      -1.16904842      -1.43214045       0.02757938      -0.03835848       0.03188504       0.00157406       0.00857580      -0.00221016
H        2.11943196      -1.44752294      -1.14624117      -0.03765589       0.06141339       0.00187506      -0.00220194      -0.00556844      -0.00108326
C        1.11478185      -0.78977465       1.33615474       0.03254645      -0.00677566       0.03379301       0.00212007      -0.00244185       0.00422765
N        1.01437348      -1.39725949       2.34101858      -0.05971486      -0.00414016       0.02310463       0.00390022       0.00626687      -0.00238835
C        0.69511973       2.04082842       1.25150953      -0.01466921       0.00403725      -0.02912869      -0.00320382       0.00045394       0.00168925
N        0.32548859       2.57709240       2.22867959      -0.00562293      -0.03415484       0.01272761      -0.00380746       0.00267191      -0.00701746
C        0.61463207       1.97102921      -1.16250688       0.01517833      -0.00343335      -0.00753699       0.01086036      -0.01249510       0.02088093
N        0.21941483       2.50844791      -2.12859989       0.04068257       0.02812965      -0.00195026      -0.00812586       0.01049814      -0.01314104
11
Properties=species:S:1:pos:R:3:mp2_forces:R:3:forces:R:3 R1=H R2=H R3=NO2 R4=H lg=Br nu=Cl rxn-id=29 mp2_energy=-90227.66649340076 energy=-90226.88527630991 free_energy=-90227.66649340076 pbc="F F F"
C        1.01343438      -0.06979419       0.04696110      -0.01662047      -0.01874569       0.00214181      -0.00257487       0.00667789      -0.01070642
C        1.08826965       1.42537594       0.03389966      -0.00123729      -0.00067576       0.01219984      -0.00335150      -0.00248620       0.01030773
H        2.11255870       1.77491828      -0.08839808       0.00709719       0.00957240      -0.00112612      -0.00510714      -0.00291333       0.00033590
Br      -1.35990178      -0.22656476      -0.53728609       0.00769569       0.00137802      -0.09548133       0.00036209       0.00441424       0.00105603
Cl       3.25826021      -0.43477511       0.60204131       0.01754595       0.01884623      -0.04029828       0.00728369       0.00150314      -0.00633172
H        1.21891030      -0.60179890      -0.86138464      -0.03272941       0.01401609       0.05285008      -0.00108863       0.00079517       0.01223484
H        0.77574974      -0.59510538       0.94975970       0.00934886      -0.03971473       0.06872373       0.00652794      -0.00358904      -0.00518755
H        0.45091344       1.86484251      -0.72915994      -0.02657112      -0.00536525      -0.01556359       0.00388614      -0.00805666       0.00462194
N        0.63123038       2.04085935       1.31997260       0.01812362       0.03563434      -0.01417212      -0.00331285       0.00108426       0.00426902
O        0.48569709       3.26260318       1.29286671       0.02814394      -0.00937034       0.01217612       0.00855673       0.00426198      -0.00706093
O        0.46742714       1.33652062       2.30796639      -0.01079697      -0.00557531       0.01854985      -0.01118162      -0.00169145      -0.00353886
16
Properties=species:S:1:pos:R:3:mp2_forces:R:3:forces:R:3 R1=CN R2=CN R3=CH3 R4=NO2 lg=Cl nu=F rxn-id=1441 mp2_energy=-29004.5294350704 energy=-29004.284486478362 free_energy=-29004.5294350704 pbc="F F F"
C        0.72827520      -0.03934965      -0.00054362       0.04630820       0.04426699      -0.00835204      -0.00620979      -0.00076099       0.00116995
C        0.78839693       1.49274831      -0.06517566       0.01363822      -0.00579159       0.00556356      -0.00076080       0.00092318      -0.00154294
H        1.79856230       1.72006479      -0.39864229       0.00362282       0.02284214      -0.01793791      -0.00067090       0.00036233      -0.00121609
Cl      -1.43853004      -0.27815714      -0.31480889      -0.04675402      -0.00179040       0.02099512       0.00111308       0.00147375       0.00120715
F        2.58982785       0.03330319       0.42846312      -0.00579489       0.00404229       0.03797303      -0.00084364       0.00388942       0.00108233
C        1.11191398      -0.83132135      -1.14455898      -0.00388976      -0.00175797       0.01765388       0.00142263      -0.00489988      -0.00084052
N        1.41964589      -1.48375172      -2.07339293       0.00677447       0.02538848      -0.02130800       0.00282517      -0.01279526       0.01186536
C        0.65100033      -0.69893153       1.28519884      -0.04406532      -0.00799266       0.02227420       0.00372977       0.01149453      -0.02462765
N        0.55917084      -1.20802006       2.34119951       0.02862087      -0.00757917      -0.01668815       0.00264960      -0.01265136       0.01131891
C        0.49305763       2.12515355       1.27102303      -0.00276769      -0.01817680      -0.00559815      -0.00075494      -0.00083793      -0.00047354
H       -0.50583457       1.85612301       1.61584758      -0.00107798       0.01358567       0.02151507      -0.00122468      -0.00181195      -0.00252796
H        1.24016059       1.76284159       1.97755028      -0.00453718      -0.01749614      -0.01716696      -0.00025330       0.00049991      -0.00048455
H        0.56036996       3.21082687       1.19844493       0.00871420      -0.02523158      -0.02365144      -0.00090361      -0.00089575       0.00086349
N       -0.07904675       2.05926250      -1.16217930      -0.00195143      -0.03119909      -0.01206317      -0.00023955       0.00423749       0.00086794
O       -0.91795085       2.90930927      -0.87818716       0.00714946      -0.00275335      -0.01919036       0.00239967       0.00560089       0.00379953
O        0.18638935       1.68000508      -2.29925299      -0.00398997       0.00964319       0.01598131      -0.00227870       0.00617163      -0.00046140
16
Properties=species:S:1:pos:R:3:mp2_forces:R:3:forces:R:3 R1=CN R2=CN R3=CH3 R4=NH2 lg=Cl nu=F rxn-id=1452 mp2_energy=-24951.619493867092 energy=-24951.440414958503 free_energy=-24951.619493867092 pbc="F F F"
C        0.69650765      -0.00614091      -0.02185305      -0.06039832      -0.06163312      -0.00526729       0.01612114       0.00046004       0.00444546
C        0.69508153       1.53084793      -0.04684421       0.02326462       0.00696670      -0.00407405       0.00087731       0.00055981      -0.00022951
H        1.74701120       1.76171385      -0.20249460       0.08313642       0.04501635      -0.02635794      -0.00111797       0.00968524      -0.00267683
Cl      -1.44921271      -0.36042095      -0.17016268      -0.03971099       0.03896021       0.01495427       0.00405828       0.00653512      -0.00422097
F        2.65922724       0.02781395       0.25798500      -0.00255989       0.02414026       0.06089597      -0.00549315       0.00154404      -0.01252696
C        1.04804451      -0.69399161      -1.24174214       0.04415252      -0.02235802      -0.03039670       0.00006948      -0.00438503       0.00397104
N        1.28537678      -1.24405750      -2.25341745       0.00428483       0.02828946      -0.03496860      -0.00634369      -0.00792857       0.00456531
C        0.81849852      -0.71505301       1.23192808      -0.01301473      -0.01269259       0.04675115      -0.00096355      -0.00037988       0.00649910
N        0.80633992      -1.25691102       2.27588948       0.04600804       0.02043800      -0.03197681       0.00579609      -0.00696245       0.00292794
C        0.26174760       2.10111660       1.29887164      -0.01900627      -0.00940995       0.01035862      -0.00374578      -0.00273073      -0.00017356
H       -0.75607892       1.79057426       1.54503552      -0.04150284       0.02192648       0.03466246      -0.00325005      -0.00666095      -0.00178771
H        0.93841911       1.77171420       2.09047832       0.00635795      -0.01666382      -0.01395990      -0.00463558      -0.00179487       0.00109840
H        0.29453280       3.19451450       1.24958156       0.01596638      -0.02300268      -0.03336975      -0.00677893      -0.00239518       0.00099147
N       -0.02849529       2.02251259      -1.21160796      -0.01062865      -0.00732766      -0.00010846      -0.00185215       0.00117732       0.00099940
H        0.16787583       3.01144435      -1.30940513       0.02562384      -0.07863373       0.02142464       0.01076571      -0.00208090      -0.00632475