14
Properties=species:S:1:pos:R:3:mp2_forces:R:3:forces:R:3 R1=NO2 R2=NH2 R3=H R4=CN lg=Br nu=Cl rxn-id=1108 mp2_energy=-94235.14315734354 energy=-94235.16064404583 free_energy=-94236.46704907104 pbc="F F F"
C        1.17014207      -0.07023993      -0.04343323       0.44702022       0.00609766      -0.09714020       0.44387490       0.01533825      -0.05724373
C        1.08302448       1.44917354      -0.02445781       0.01800669      -0.00557751      -0.01637507       0.01812171      -0.00242480      -0.00196084
H        2.04838074       1.81258683       0.32743581      -0.00729971       0.07204495       0.01703245      -0.02001241       0.08174908       0.02080316
Br      -1.37299788      -0.23110168       0.11396071      -0.17795738      -0.01092690       0.00193375      -0.18874878      -0.01538926       0.01371026
Cl       3.42989492      -0.07508137      -0.52274152      -0.20994207       0.01725764       0.04319478      -0.18585654       0.01055217       0.03291458
H        0.33058654       1.72988126       0.71174522      -0.02343467      -0.07697206      -0.00811581      -0.01537235      -0.07270024      -0.01218637
N        1.00101718      -0.90130781      -1.30975837      -0.03669130      -0.01046401       0.01038065      -0.02718766      -0.00303052       0.00180454
O        0.86677775      -0.31113258      -2.36866871      -0.02702249      -0.00119747      -0.00021306      -0.02886106      -0.00483224       0.00124567
O        1.05688080      -2.11240982      -1.15151225      -0.01762528      -0.01202963       0.02481240      -0.01925326      -0.00245257       0.00497331
N        1.33341893      -0.71793745       1.19457276       0.07830735      -0.00943650       0.04715705       0.05572497       0.00327240      -0.01264356
H        2.17876855      -1.26873085       1.15660473      -0.00767975      -0.08938401       0.07588025      -0.00598128      -0.08089096       0.07588718
H        0.53694880      -1.30594099       1.39871531      -0.02340984       0.07634862      -0.08471661      -0.02767307       0.07746116      -0.06968042
C        0.77106831       2.14647935      -1.26627174      -0.00866292       0.00486294      -0.01877632       0.00022270      -0.00596392      -0.00422272
N        0.53731233       2.84274153      -2.18175138      -0.00360885       0.03937629       0.00494573       0.00100213      -0.00068856       0.00659892
13
Properties=species:S:1:pos:R:3:mp2_forces:R:3:forces:R:3 R1=NO2 R2=H R3=CN R4=CN lg=Cl nu=Cl rxn-id=918 mp2_energy=-37734.52672126001 energy=-37734.49301222129 free_energy=-37735.580121463325 pbc="F F F"
C        0.91134584      -0.09595707       0.05331126      -0.08846420      -0.00823246      -0.05448272      -0.09984488       0.00384365      -0.02202906
C        1.06036658       1.41700204      -0.03518619      -0.00538071      -0.00285161       0.02018138      -0.00145786       0.00417471      -0.00419623
H        2.11523265       1.63974647      -0.21771615       0.00206466      -0.01088940       0.01023576       0.00101762      -0.01502074       0.00276589
Cl      -1.35974536      -0.05664405      -0.34973022       0.03183466      -0.00695047      -0.00829774       0.03756307      -0.00290212      -0.00350860
Cl       2.98226991      -0.40932587       0.84321326       0.04774550      -0.00710922       0.02391562       0.03486428       0.00186562       0.00754749
H        0.57870068      -0.65034279       0.90706088       0.02672964       0.02824096       0.00926161       0.02435861       0.00445309       0.00440006
N        1.18431435      -0.84859359      -1.18132399      -0.01249710      -0.00588377       0.01556226      -0.00145533      -0.00061995       0.00158185
O        1.57995071      -0.19111075      -2.14161819      -0.00941951      -0.00580986      -0.02038663      -0.00483832      -0.00996085      -0.00324661
O        1.01993654      -2.05903556      -1.14566659       0.00862075      -0.01004933       0.00680886       0.00809195      -0.01020918       0.01180957
C        0.71047655       1.99404347       1.26509635      -0.00405984      -0.00109402       0.01723408       0.00242056      -0.00139116       0.00061883
N        0.45881737       2.48731332       2.29996782       0.00099900      -0.00256818      -0.00331736      -0.00612014      -0.00607130      -0.00007947
C        0.31486766       2.09953493      -1.10185778       0.01498811       0.02417208      -0.01764190       0.00692007       0.01975326       0.00038295
N       -0.12295911       2.80020769      -1.93664966      -0.01316095       0.00902527       0.00092679      -0.00151963       0.01208496       0.00395333
19
Properties=species:S:1:pos:R:3:mp2_forces:R:3:forces:R:3 R1=CH3 R2=CH3 R3=NH2 R4=NO2 lg=Br nu=Br rxn-id=2285 mp2_energy=-151365.57411470442 energy=-151366.1909612427 free_energy=-151367.59022929455 pbc="F F F"
C        1.47858781      -0.12906399      -0.02576063       0.22112829       0.04087275       0.15737013       0.03189254      -0.00119076      -0.00294260
C        1.53609291       1.39372622       0.02482717       0.08661381       0.02837330       0.07222012       0.01090711       0.00230287       0.00066274
H        2.60005471       1.64781967      -0.04927507      -0.02833205      -0.14024576       0.01804612       0.00694000       0.02099231       0.01393775
Br      -2.18452185       0.64491497       0.59174338       0.32694542      -0.14164975      -0.03589399      -0.01971888      -0.00860945       0.02764626
Br       4.53052682      -0.38888171      -0.00874916      -1.20754063       0.04104011      -0.01504924       0.00264380       0.00126536       0.00669219
C        1.21978938      -0.88190192      -1.27216602       0.51518195      -0.17539585       0.28754389      -0.00243400       0.00394871      -0.00027656
H        0.17484154      -0.68064471      -1.54449338      -0.10945057       0.15925728       0.06626638      -0.01272944       0.00309183       0.03379953
H        1.87073375      -0.57525335      -2.08368465      -0.07007511       0.12074586      -0.05754128      -0.02761208       0.00820358      -0.01910903
H        1.33586218      -1.94874424      -1.07850838      -0.04611531       0.03791613      -0.03788756       0.00417957       0.00327759      -0.00870471
C        1.24515604      -0.84336403       1.25062685       0.74157491       0.22676463      -0.15641505       0.00689852       0.00471970      -0.00361795
H        1.81586472      -1.77231759       1.24009073      -0.16159639      -0.09377470      -0.02014469      -0.03893511      -0.02319898      -0.00638219
H        1.50966060      -0.23895012       2.11199692      -0.01558189       0.03596937      -0.01652638       0.03835956      -0.01056222      -0.00285298
H        0.16810126      -1.05848122       1.28745239      -0.20018223       0.09618878      -0.14369659      -0.00437015       0.05608898       0.00132939
N        0.96817453       1.92991530       1.19995010       0.01145717      -0.06014153      -0.05239210      -0.01128643      -0.00815880      -0.00522537
H       -0.04180509       1.76718478       1.21160180      -0.07519971      -0.06915009      -0.02268208      -0.00932516      -0.02285883      -0.01282606
H        1.14818860       2.92252068       1.24878171       0.00531949      -0.00551995       0.02422881      -0.02580248      -0.00564362      -0.00057567
N        0.97986385       2.05359338      -1.27617058      -0.30196917       0.20417243      -0.07294744       0.01609961      -0.00580007      -0.00583792
O        0.16029744       2.95443107      -1.13125040       0.22736052      -0.19096856       0.01714659      -0.00894101      -0.02666077      -0.01772457
O        1.47588176       1.70839219      -2.34470576       0.08046153      -0.11445447      -0.01164562       0.04323402       0.00879258       0.00200776
15
Properties=species:S:1:pos:R:3:mp2_forces:R:3:forces:R:3 R1=NO2 R2=H R3=CH3 R4=CN lg=Br nu=Cl rxn-id=946 mp2_energy=-93799.08215961023 energy=-93799.07355954596 free_energy=-93799.95795001902 pbc="F F F"
C        0.83235962      -0.03421590       0.02263796      -0.00199933       0.00017111      -0.02063005      -0.01297309       0.00183207      -0.00451390
C        0.89575292       1.47730495      -0.05952842       0.01788701       0.00054164       0.00888997      -0.00103544       0.00155550      -0.00217383
H        1.93558312       1.73747191      -0.26905455       0.00202934      -0.00294248       0.00919004      -0.00070130       0.00079656      -0.00205985
Br      -1.61032062      -0.24880343      -0.34993963      -0.01208888       0.00585866      -0.01119200       0.00994027       0.00246180      -0.00789492
Cl       2.94289322      -0.25865640       0.85531706       0.02196313      -0.00493995       0.00609677       0.00551094       0.00123630       0.00139829
H        0.53975056      -0.60553935       0.87993132       0.00261001       0.00679673      -0.00361960       0.00461378       0.00336043       0.00236411
N        1.15730463      -0.80768221      -1.18833574      -0.00491155       0.00391626      -0.00108010      -0.00139059      -0.00445992       0.00273848
O        1.51608173      -0.15876700      -2.16999152      -0.01918630      -0.00662813      -0.00925391      -0.01350267      -0.00945674      -0.00431857
O        1.07429092      -2.02677295      -1.12040086       0.01443275      -0.01357340       0.02413301       0.00967746      -0.00440947       0.01163137
C        0.49931001       2.07430238       1.29176100      -0.01440408      -0.00481305      -0.01110276      -0.00072726      -0.00193562      -0.00064792
H       -0.53869252       1.82714358       1.51622173      -0.00169277      -0.00565124      -0.00331940      -0.00008331      -0.00416547      -0.00053391
H        1.15458399       1.67169956       2.06510190       0.00310710      -0.00699167      -0.00174057       0.00019719      -0.00394660      -0.00291801
H        0.60939352       3.16018982       1.26436816      -0.00241128       0.01325938       0.00269449      -0.00276414      -0.00192741       0.00375498
C        0.12423949       2.09377525      -1.14438736       0.00138506       0.00590061       0.00761296       0.00037183       0.00640366      -0.00016548
N       -0.37660309       2.76300795      -1.97029569      -0.00672024       0.00909555       0.00332115       0.00286634       0.01265489       0.00333917
17
Properties=species:S:1:pos:R:3:mp2_forces:R:3:forces:R:3 R1=H R2=CH3 R3=CH3 R4=NH2 lg=Br nu=Cl rxn-id=669 mp2_energy=-88307.36734866862 energy=-88307.35567103532 free_energy=-88308.19840605545 pbc="F F F"
C        0.85318335       0.01086002       0.04669874      -0.20612282       0.03253341       0.03837680      -0.21535024       0.01033308       0.02729853
C        0.95135770       1.51729689       0.03661608      -0.03545451      -0.00908751      -0.00041744      -0.02971477      -0.00435358       0.00171853
H        2.02506229       1.72585648       0.03968691      -0.02241307      -0.05764303      -0.02114867      -0.01481050      -0.05731075      -0.00175536
Br      -1.66745383      -0.20797825      -0.06315412       0.09656750       0.00365860      -0.00289858       0.11402419       0.00897479       0.00836765
Cl       3.23256861      -0.45106715      -0.58658455       0.14050747      -0.04235512      -0.02964121       0.12460864      -0.02879658      -0.03183444
H        0.77666724      -0.48823334      -0.89992992       0.04608103      -0.00569194       0.00975289       0.05901444       0.00460699      -0.00071397
C        1.02013648      -0.74169484       1.33508669       0.00624964      -0.00510281      -0.00428993      -0.02216709       0.00054071       0.00055059
H        1.95426254      -0.44968978       1.81726638      -0.01353583       0.00967980      -0.03676995      -0.00647762       0.01708968      -0.03568816
H        0.18815077      -0.52884735       2.00454307      -0.00420910      -0.01447514       0.04580811       0.00319368      -0.02230666       0.03753243
H        1.05826549      -1.81206423       1.14063442      -0.00007406       0.00739201      -0.01061797       0.00139524       0.00225484      -0.00405791
C        0.36143823       2.17437369       1.28953837      -0.00058495       0.03498973       0.01357917      -0.00226396       0.01249823       0.00214695
H       -0.70945889       1.97906713       1.35842201       0.00818233       0.00822341      -0.00377489      -0.00251467       0.01575216       0.00742076
H        0.84753691       1.81942751       2.20293312      -0.00105402       0.00444051       0.00039669       0.00039056       0.00128497      -0.00289041
H        0.52330543       3.25607041       1.22705825      -0.00212334      -0.00639544       0.00767142       0.00266047       0.00957690       0.00359837
N        0.42348152       2.03047517      -1.22346557      -0.01171508       0.01403314       0.00907822      -0.00769259       0.00819275      -0.00030448
H        0.55383823       3.03546558      -1.24848932      -0.00217094       0.00912842       0.00173035       0.00225609       0.00471353      -0.00434322
H       -0.57299141       1.83575952      -1.23840050       0.00186973       0.01667197      -0.01683501      -0.00655187       0.01694894      -0.00704585
15
Properties=species:S:1:pos:R:3:mp2_forces:R:3:forces:R:3 R1=CN R2=H R3=CH3 R4=NO2 lg=Cl nu=Cl rxn-id=1300 mp2_energy=-36296.010565921766 energy=-36296.01197205794 free_energy=-36296.98248395324 pbc="F F F"
C        0.90110884      -0.01918524      -0.00145093       0.07663604       0.01922474       0.01423882       0.06372901       0.00004879       0.01386105
C        0.93080082       1.49898817      -0.05836148       0.00524018       0.01594282      -0.00337235       0.00447847       0.00326842       0.00010719
H        1.93563421       1.79833837      -0.35741104       0.00604297      -0.00118609      -0.00220176       0.00045865       0.01685900      -0.00062426
Cl      -1.45954880      -0.19428127      -0.20464501      -0.02579385      -0.00800102      -0.02121998      -0.02511319      -0.00260286      -0.01082351
Cl       3.04883851      -0.19247604       0.73464831      -0.02323556      -0.00891506      -0.02210009      -0.02211367       0.00562975      -0.01622379
H        0.63932585      -0.51490143       0.91287336      -0.00402058       0.01649951      -0.00728477      -0.01601266       0.00255939      -0.00533782
C        1.11280269      -0.81697910      -1.17437230       0.00314603      -0.01696384      -0.01229011      -0.00203132      -0.00667343      -0.00089190
N        1.32537546      -1.48682997      -2.11888332      -0.01144911      -0.01149148       0.02106671      -0.00357210      -0.01394626       0.01018160
C        0.55639545       2.10756426       1.27168019      -0.01570784       0.00289775       0.00632790       0.00012577      -0.00134018       0.00121807
H       -0.47161755       1.84934197       1.52221991       0.00063854      -0.00168458      -0.00783869       0.00089939      -0.00583504      -0.00153765
H        1.23757794       1.71320811       2.02716699       0.00384990      -0.00558685      -0.00799439       0.00104434       0.00050933       0.00135970
H        0.65325514       3.19269514       1.23860398      -0.00807269      -0.00159172       0.00389645      -0.00141942      -0.00147894       0.00411641
N        0.09091688       2.06089180      -1.18706084       0.00174667      -0.01257938       0.02902121      -0.00201243      -0.00209705       0.00118284
O       -0.71068878       2.95239397      -0.92964525      -0.01306836       0.02357133       0.00240273       0.00397634       0.00214175       0.00372766
O        0.35788332       1.64945585      -2.31088841       0.00404766      -0.01013612       0.00734833      -0.00243718       0.00295733      -0.00031558
13
Properties=species:S:1:pos:R:3:mp2_forces:R:3:forces:R:3 R1=CH3 R2=H R3=CN R4=H lg=F nu=Cl rxn-id=1808 mp2_energy=-20943.1117480162 energy=-20943.118336043648 free_energy=-20945.006144246046 pbc="F F F"
C        1.17522542      -0.03945947       0.00683003       0.36306281      -0.00571455       0.06912431       0.37857856       0.00202703       0.07114959
C        0.99593850       1.46369354      -0.03926865       0.03452905      -0.00470507      -0.00489101       0.03046008      -0.01357062       0.00290169
H        1.90634725       1.94101815      -0.41018591      -0.00123455       0.06014604       0.00825409      -0.00774711       0.05782870      -0.00832387
F       -0.89384847      -0.09842992      -0.15485973      -0.20470933       0.03216753      -0.01308854      -0.20843885       0.01612907      -0.01314170
Cl       3.19540741      -0.14028065       0.64422044      -0.15612110       0.01605260      -0.04908402      -0.15918830       0.00804179      -0.04408590
H        0.81510457      -0.57615273       0.86299277      -0.06001878       0.03448788      -0.08256126      -0.07658029       0.03318701      -0.07505550
H        0.15539804       1.67012985      -0.70135471       0.00373028      -0.10466431       0.01216935       0.00028923      -0.08897294       0.01607780
C        1.29789760      -0.73650518      -1.32224397       0.02290270       0.00959223       0.01998036       0.03610148       0.00446907       0.01410417
H        0.33783021      -0.66785246      -1.82873735      -0.00083396       0.02874835       0.10278431      -0.00843130       0.03179646       0.09872362
H        2.09429652      -0.27859035      -1.91369720       0.00304765      -0.01935419      -0.04172844       0.00746150      -0.01759367      -0.04355943
H        1.55674974      -1.78438290      -1.16750472       0.00374330      -0.01668286      -0.01544055       0.00529649      -0.01004141      -0.01338175
C        0.67866636       2.03733274       1.26460632      -0.00511324      -0.02192986      -0.00966644       0.00178185      -0.01338668      -0.00676780
N        0.43644208       2.54700350       2.29331106      -0.00298484      -0.00814379       0.00414783       0.00041665      -0.00991380       0.00135910
14
Properties=species:S:1:pos:R:3:mp2_forces:R:3:forces:R:3 R1=NO2 R2=H R3=H R4=CH3 lg=Br nu=Cl rxn-id=876 mp2_energy=-91293.2716067492 energy=-91293.28862443482 free_energy=-91294.06677184919 pbc="F F F"
C        0.87148040      -0.02749296      -0.02485916       0.23220593      -0.03193523       0.05536896       0.24235217      -0.02102271       0.06134060
C        1.08335750       1.45327604      -0.20490901       0.02514941      -0.00387136       0.05273087       0.02614241       0.00384716       0.00285444
H        2.09083599       1.55345058      -0.60453610       0.01641678       0.04056351      -0.02062127       0.01477672       0.04338717      -0.00863481
Br      -1.63185662      -0.21480854      -0.30502453      -0.11510341      -0.02719803       0.00872383      -0.09701817      -0.01579329      -0.01439182
Cl       2.99952756      -0.41661145       0.78786898      -0.11294695       0.01682055      -0.05247230      -0.11022042       0.02283065      -0.04706174
H        0.57542771      -0.54439118       0.86374515      -0.07762549       0.02609837      -0.02929075      -0.07235298       0.00819025      -0.02155813
H        1.11296098       1.86322756       0.80811473       0.01016883       0.01001867       0.01047095       0.00482867       0.00819754       0.00112821
N        1.08579895      -0.90841847      -1.19081854       0.01692449       0.01339601      -0.01780711       0.00994005      -0.00384740       0.00326727
O        1.40933731      -0.36021693      -2.24566042      -0.00780457      -0.02143130       0.00297522      -0.01594328      -0.00292168      -0.00403955
O        0.95122725      -2.11397359      -1.02655080       0.01361381      -0.01079728       0.00179803       0.00046307      -0.00346516       0.00255718
C        0.14094330       2.26837881      -1.08749669      -0.01976682      -0.00427425      -0.00168003      -0.00109706      -0.01448947       0.00578273
H        0.02538328       1.80111692      -2.06311651       0.00493351      -0.00420646      -0.02324872      -0.01015229      -0.00740288       0.00562246
H       -0.84621153       2.37566828      -0.64630089       0.00782284      -0.00294969       0.02103247       0.00402882      -0.00503975       0.01182752
H        0.58254939       3.26195858      -1.22454403       0.00601164      -0.00023354      -0.00798015       0.00425230      -0.01247044       0.00130563
14
Properties=species:S:1:pos:R:3:mp2_forces:R:3:forces:R:3 R1=NH2 R2=CN R3=CN R4=CN lg=Cl nu=Cl rxn-id=2623 mp2_energy=-36187.4265056592 energy=-36187.43234847887 free_energy=-36188.81519578857 pbc="F F F"
C        1.32376835      -0.10265631       0.08036877       0.47632973      -0.00538591       0.00371081       0.50042442      -0.01872159       0.04716896
C        1.26616140       1.44401810       0.04229142      -0.00115858      -0.03297904       0.00122204       0.01952024      -0.01111957       0.00064290
H        2.30314822       1.78788762      -0.01176103      -0.00806512       0.08507660      -0.00766820      -0.02009750       0.10469011      -0.01032335
Cl      -1.11570455      -0.07104810      -0.02405281      -0.19829003      -0.00240538       0.02200157      -0.19040623      -0.00283780      -0.00157334
Cl       3.54380389      -0.20022164       0.41469134      -0.21795349       0.02178814      -0.04427307      -0.21373561       0.01231312      -0.03498603
N        1.38588405      -0.75909348      -1.18170405       0.10101096       0.01013824      -0.01573699       0.06322331       0.00179725       0.00256859
H        0.49259855      -1.17053636      -1.41820729      -0.00257557       0.09092159       0.10989926      -0.01573344       0.09133097       0.09799704
H        2.12223954      -1.44808454      -1.15879526      -0.01508236      -0.10498982      -0.06237764      -0.02390908      -0.08440190      -0.07597211
C        1.10416546      -0.79009038       1.33453853      -0.10574151      -0.00799768      -0.01212721      -0.08563168       0.00311238      -0.02671981
N        1.01179432      -1.39638596       2.34079133      -0.01404996       0.01321771      -0.01157749      -0.01535961       0.00413270      -0.00068859
C        0.69371245       2.03728271       1.25171834      -0.01541187      -0.01909793       0.00391384      -0.01211780      -0.03878746      -0.00046922
N        0.32501715       2.57737211       2.22724663       0.01588391      -0.01053525      -0.01548140       0.00361566      -0.00137331      -0.01344114
C        0.61335005       1.96682626      -1.16176637      -0.03824353      -0.01388036       0.01334948      -0.02208102      -0.05343533      -0.00443088
N        0.22136417       2.51152869      -2.12566830       0.02334743      -0.02387091       0.01514499       0.01228833      -0.00669956       0.02022699
11
Properties=species:S:1:pos:R:3:mp2_forces:R:3:forces:R:3 R1=H R2=H R3=NO2 R4=H lg=Br nu=Cl rxn-id=29 mp2_energy=-90226.90335857718 energy=-90226.92192992326 free_energy=-90227.66649340076 pbc="F F F"
C        0.95015310      -0.06841870       0.03387463      -0.73132755       0.01259296      -0.19362607      -0.74272397       0.03448910      -0.18193242
C        1.08239104       1.42405434       0.03724793      -0.09143822       0.00468911      -0.00426767      -0.08358924      -0.00704175      -0.01646122
H        2.11160203       1.76364655      -0.08219685      -0.04319629      -0.17419139       0.00441457      -0.02457143      -0.15924074       0.01348771
Br      -1.32967207      -0.22384028      -0.54946318       0.27549063       0.04700779       0.12117020       0.29882996       0.02429021       0.10920034
Cl       3.28283985      -0.44423079       0.60044270       0.38525261      -0.04519512       0.09801417       0.34308271      -0.05614075       0.07711915
H        1.22908556      -0.60040355      -0.85542655       0.08033570       0.00689164       0.03946756       0.08996655       0.01091831       0.05499057
H        0.78319922      -0.59946536       0.95112074       0.11554536       0.01545803      -0.02657753       0.12062427       0.02168430      -0.02247636
H        0.45138119       1.87050986      -0.72603512       0.05147132       0.11964476      -0.01209217       0.02592354       0.12195001      -0.01076766
N        0.62933021       2.04436002       1.32256362      -0.03797880       0.01710621       0.00115630      -0.01712453       0.00909916      -0.02240537
O        0.47405421       3.26496786       1.28824381       0.00796983       0.01733271       0.00017225       0.01101269       0.01258115       0.01103215
O        0.47818491       1.34590156       2.31686701      -0.01212459      -0.02133672      -0.02783162      -0.02143056      -0.01258900      -0.01178689
16
Properties=species:S:1:pos:R:3:mp2_forces:R:3:forces:R:3 R1=CN R2=CN R3=CH3 R4=NO2 lg=Cl nu=F rxn-id=1441 mp2_energy=-29004.288007522835 energy=-29004.285243087754 free_energy=-29004.5294350704 pbc="F F F"
C        0.71906389      -0.03943804      -0.00305487      -0.05019362       0.04373796      -0.00157936      -0.08771740      -0.00298686      -0.01886011
C        0.78807256       1.49280753      -0.06567136       0.01153829      -0.01251687      -0.00369089      -0.00426154      -0.00267836      -0.00080310
H        1.79876533       1.71857835      -0.39857351      -0.01481958      -0.01176457      -0.00868251      -0.00166546      -0.01757801       0.00155254
Cl      -1.43616784      -0.27757958      -0.31399772       0.02292194      -0.02762899      -0.00353821       0.03076910       0.00832577      -0.00072408
F        2.59187127       0.03468222       0.42972271       0.03152544      -0.00885116       0.00605365       0.02779164       0.00320583       0.00757017
C        1.11279559      -0.83188650      -1.14381381       0.01245757       0.01228994       0.01274738       0.01122383      -0.00075633       0.00872415
N        1.42099348      -1.48829663      -2.06971011      -0.01343071      -0.00862682       0.01331492       0.00317737      -0.00614101       0.01127368
C        0.65328506      -0.69814981       1.28375198       0.00300978       0.00067525      -0.00852248       0.02048761      -0.00207544       0.01128072
N        0.56084662      -1.20924155       2.33907554      -0.00726140       0.01118598      -0.03692761       0.00580294       0.00270380      -0.01611166
C        0.49293812       2.12493590       1.27076059      -0.00450876      -0.00288064       0.01878874      -0.00028673      -0.00128988      -0.00029233
H       -0.50604379       1.85562272       1.61514238       0.01062540       0.00841678      -0.00068967      -0.00116715       0.00041242       0.00228296
H        1.24013336       1.76281777       1.97716084      -0.00302107      -0.00323111      -0.01126477       0.00054514      -0.00403457      -0.00180606
H        0.55987706       3.21064664       1.19865848      -0.00192838      -0.00430208      -0.00248817      -0.00123265      -0.00026424      -0.00068405
N       -0.07889530       2.06121054      -1.16194583       0.00245754       0.01880929      -0.00273230       0.00154282       0.00966185      -0.00136157
O       -0.91758395       2.91128267      -0.87712713      -0.01061518       0.01118180       0.01090141      -0.00134182       0.00744059       0.00000474
O        0.18545717       1.68211450      -2.29939270       0.01124275      -0.02649477       0.01830989      -0.00366771       0.00605443      -0.00204599
16
Properties=species:S:1:pos:R:3:mp2_forces:R:3:forces:R:3 R1=CN R2=CN R3=CH3 R4=NH2 lg=Cl nu=F rxn-id=1452 mp2_energy=-24951.43843988792 energy=-24951.443747261357 free_energy=-24951.619493867092 pbc="F F F"
C        0.71854709      -0.00438941      -0.01815001       0.22829223       0.02525178       0.03997259       0.22344954       0.02021237       0.02465676
C        0.69747998       1.53167857      -0.04703229       0.03566790      -0.01148623       0.00297711       0.01370234       0.01201298       0.00242745
H        1.74820383       1.76657156      -0.20496994      -0.00249553       0.07327463      -0.00856338       0.00100084       0.06191490      -0.00488420
Cl      -1.45673600      -0.36127830      -0.17102614      -0.07293068      -0.02581439       0.00135390      -0.08408264      -0.00900419      -0.00525046
F        2.65114932       0.02578792       0.25872228      -0.06687294       0.02194600      -0.02445952      -0.07450081       0.01574887      -0.02976282
C        1.04638222      -0.69339286      -1.24258303      -0.04545591      -0.01992309      -0.00806976      -0.02559750      -0.01832311      -0.01553120
N        1.28449223      -1.23654005      -2.25770488      -0.00303448      -0.02907848      -0.00905274      -0.00933294      -0.02155252      -0.00149815
C        0.81169280      -0.71693223       1.23522218      -0.08067820       0.00532036      -0.03370233      -0.05014038      -0.01343481       0.00034093
N        0.80157171      -1.25798572       2.27937028       0.00846050      -0.02319941       0.02479133       0.00211375      -0.01405975       0.01593806
C        0.26395590       2.10176170       1.29834152      -0.00143461      -0.00840286      -0.00564904      -0.00324903      -0.00354078       0.00165766
H       -0.75399186       1.79167836       1.54394571       0.00176859      -0.00559765       0.00382299      -0.00122805      -0.01195164      -0.00645436
H        0.94037906       1.77175145       2.08991728      -0.01581460       0.00457184       0.01724693      -0.00543601       0.00167435       0.00677756
H        0.29783483       3.19517197       1.24913770      -0.00254766      -0.01061145       0.00182752      -0.00668576      -0.00362893       0.00126952
N       -0.02800933       2.02058197      -1.21179997       0.00544652       0.00006205      -0.00745281       0.00319428      -0.00638338       0.00529880
H        0.16083400       3.01153502      -1.30568010      -0.00163547      -0.00803440      -0.00871693       0.01307204      -0.00845791      -0.00514302