21
Lattice="1.0 0.0 0.0 0.0 1.0 0.0 0.0 0.0 1.0" Properties=species:S:1:pos:R:3:mp2_forces:R:3:forces:R:3 mp2_energy=-25669.004809123442 energy=-25674.00000887593 free_energy=-25674.00000887593 pbc="F F F"
C        0.16449841      -0.22688921      -0.00019392       0.02520861      -0.02838867       0.00005940       0.00177141      -0.00466653      -0.00515134
C        1.63540084       0.07834407       0.03041571      -0.03334038      -0.00005276       0.00015753      -0.00070580       0.00362097      -0.00222587
H        2.15938099      -0.83584724       0.30815559      -0.02379320       0.02684727      -0.00003962       0.00513300       0.00198689      -0.01552557
F       -0.55437544       0.98518397      -0.28480843       0.00764467      -0.04609678       0.00057088      -0.00396999      -0.00928353      -0.01023889
Cl       0.88110393      -3.40190001       0.06022632      -0.00303207       0.00327824       0.00000605       0.00298302      -0.00766322       0.02059906
H       -0.10155779      -0.93710681      -0.77480791       0.02531842       0.02018914       0.01193200       0.00803442      -0.00751329      -0.00402454
H       -0.20771098      -0.58497555       0.95679826       0.02518310       0.02041626      -0.01261682       0.00145788      -0.00420912      -0.00579310
H        1.85544460       0.86509803       0.75546666      -0.01807683      -0.00921250      -0.02739735      -0.00291592      -0.00524533       0.00938272
H        1.98705563       0.39711819      -0.95255796      -0.01896744      -0.00939623       0.02743771      -0.00325514       0.02050384       0.00135400
O       -3.16145780       2.09100262       0.21866238       0.01788502       0.00752596       0.00024092       0.02398902       0.04045476       0.00635658
H       -2.92417924       2.81515577      -0.35891826      -0.00005808      -0.00429745      -0.00004192       0.02804823       0.01287895      -0.02456182
H       -2.46067368       1.44501356       0.11382667      -0.01992517       0.01473028      -0.00017627       0.00926455       0.02199541       0.01706540
O        0.42529097       3.67715624      -0.24151798      -0.00762941      -0.01045076       0.00072020      -0.04567442       0.00140192       0.00151353
H        0.07011760       3.85317269       0.62870251       0.00884785       0.01126170      -0.00104918      -0.00412384      -0.02951754       0.02361454
H        0.27826701       2.74147086      -0.39541869       0.00793100       0.02846349       0.00013742      -0.03099053       0.00143283      -0.01365632
O       -1.34618386      -5.74828085      -0.03440103       0.00087592      -0.00433965      -0.00013380      -0.00561584      -0.00305274      -0.00242627
H       -0.57690107      -6.31651684      -0.03376764      -0.01595972      -0.00288001       0.00008316      -0.01401706      -0.01513092      -0.00023471
H       -0.95378319      -4.86662220      -0.00781797      -0.00237884      -0.01175777       0.00009761       0.00594475      -0.00877758       0.00331048
O        3.94866177      -4.38993112      -0.04717063       0.00214457       0.00063924      -0.00006669       0.00617242       0.00085537      -0.00515555
H        3.63384110      -5.29000368       0.02466798       0.01577206       0.00171354      -0.00000083       0.01727713      -0.00248414       0.00543558
H        3.13196650      -3.87289846      -0.04320572       0.00634992      -0.00819253       0.00007960       0.00119272      -0.00758699       0.00036207
21
Lattice="1.0 0.0 0.0 0.0 1.0 0.0 0.0 0.0 1.0" Properties=species:S:1:pos:R:3:mp2_forces:R:3:forces:R:3 mp2_energy=-25669.004809123442 energy=-25674.088964078714 free_energy=-25674.088964078714 stress="9.81637313201531e-08 4.704458042545585e-08 -5.611081874055096e-09 4.704458042545585e-08 -3.444474106204136e-08 -3.278951998228996e-10 -5.611081874055096e-09 -3.278951998228996e-10 -4.419378418000366e-09" pbc="F F F"
C        0.15755202      -0.28667148      -0.02973439       0.02520861      -0.02838867       0.00005940       0.00372407      -0.01104761      -0.00340636
C        1.61524497       0.07127359       0.03011838      -0.03334038      -0.00005276       0.00015753       0.00122193      -0.00315174      -0.00161606
H        2.16583208      -0.81187062       0.35482552      -0.02379320       0.02684727      -0.00003962       0.00714634      -0.00120529      -0.00659103
F       -0.58602890       0.89289297      -0.37799094       0.00764467      -0.04609678       0.00057088       0.00046688      -0.01343891      -0.00071107
Cl       0.97044087      -3.43902731       0.23609764      -0.00303207       0.00327824       0.00000605       0.00002837      -0.00366664       0.01822910
H       -0.06591118      -1.03132710      -0.78502472       0.02531842       0.02018914       0.01193200       0.00568590      -0.00794749      -0.00690154
H       -0.23230551      -0.62007771       0.93027111       0.02518310       0.02041626      -0.01261682       0.00347836      -0.01547318      -0.00516168
H        1.78230593       0.89096290       0.73356396      -0.01807683      -0.00921250      -0.02739735      -0.00436346      -0.00689149       0.00361116
H        1.98095066       0.37098974      -0.95360233      -0.01896744      -0.00939623       0.02743771      -0.00188902       0.00575330       0.00032973
O       -2.85375366       2.39050222       0.32859577       0.01788502       0.00752596       0.00024092       0.09347903       0.06139994       0.00213217
H       -2.71751846       2.84666076      -0.50004395      -0.00005808      -0.00429745      -0.00004192       0.08944014       0.01528998      -0.02324592
H       -2.34213646       1.58322369       0.25311245      -0.01992517       0.01473028      -0.00017627       0.02237887       0.01575407       0.01184469
O        0.05207115       3.61435909      -0.25133890      -0.00762941      -0.01045076       0.00072020      -0.11634706      -0.00865159       0.00212064
H       -0.03668125       3.65150526       0.69963954       0.00884785       0.01126170      -0.00104918      -0.03366552      -0.00885813       0.00984826
H        0.07918788       2.67980745      -0.46676390       0.00793100       0.02846349       0.00013742      -0.07382681      -0.00812045       0.00574743
O       -1.39915349      -5.76351661      -0.10647658       0.00087592      -0.00433965      -0.00013380      -0.00006866      -0.00042925      -0.00443177
H       -0.52227432      -6.14094946      -0.03955963      -0.01595972      -0.00288001       0.00008316      -0.00187243      -0.00345601       0.00295627
H       -1.22324756      -4.82052000      -0.04854999      -0.00237884      -0.01175777       0.00009761       0.00251858      -0.00102417      -0.00168627
O        4.05745675      -4.40184801      -0.08744264       0.00214457       0.00063924      -0.00006669      -0.00123118       0.00123844      -0.00540890
H        3.76484491      -5.30446260       0.03141616       0.01577206       0.00171354      -0.00000083       0.00821406      -0.00068104       0.00112964
H        3.23732986      -3.89416273      -0.02877661       0.00634992      -0.00819253       0.00007960      -0.00451840      -0.00539275       0.00121150
21
Lattice="1.0 0.0 0.0 0.0 1.0 0.0 0.0 0.0 1.0" Properties=species:S:1:pos:R:3:mp2_forces:R:3:forces:R:3 mp2_energy=-25669.004809123442 energy=-25674.08734503715 free_energy=-25674.08734503715 stress="9.510214567280364e-08 4.5719942221893406e-08 -5.32735787421424e-09 4.5719942221893406e-08 -3.548543395819536e-08 -2.0251347494579757e-11 -5.32735787421424e-09 -2.0251347494579757e-11 -4.551596920812226e-09" pbc="F F F"
C        0.15736395      -0.28660583      -0.03095536       0.02520861      -0.02838867       0.00005940       0.00357741      -0.01069927      -0.00334202
C        1.61509897       0.07107239       0.03032271      -0.03334038      -0.00005276       0.00015753       0.00113870      -0.00297866      -0.00163934
H        2.16506283      -0.81210349       0.35593862      -0.02379320       0.02684727      -0.00003962       0.00706818      -0.00128223      -0.00710844
F       -0.58599084       0.89331762      -0.37851981       0.00764467      -0.04609678       0.00057088       0.00045039      -0.01307321      -0.00082379
Cl       0.96885745      -3.43792890       0.23591210      -0.00303207       0.00327824       0.00000605       0.00017302      -0.00409355       0.01856203
H       -0.06555528      -1.03056212      -0.78708756       0.02531842       0.02018914       0.01193200       0.00549962      -0.00776492      -0.00664856
H       -0.23315641      -0.62099371       0.92844028       0.02518310       0.02041626      -0.01261682       0.00337550      -0.01492776      -0.00500793
H        1.78169720       0.89104041       0.73355420      -0.01807683      -0.00921250      -0.02739735      -0.00444417      -0.00704356       0.00405661
H        1.98202445       0.37020510      -0.95312493      -0.01896744      -0.00939623       0.02743771      -0.00209912       0.00651008       0.00033429
O       -2.85502019       2.39057377       0.33009420       0.01788502       0.00752596       0.00024092       0.09140890       0.05995869       0.00210872
H       -2.72374461       2.84416821      -0.50075897      -0.00005808      -0.00429745      -0.00004192       0.08655240       0.01525195      -0.02276271
H       -2.34248500       1.58387910       0.25465722      -0.01992517       0.01473028      -0.00017627       0.02176637       0.01519331       0.01192962
O        0.05818038       3.61401196      -0.25075679      -0.00762941      -0.01045076       0.00072020      -0.11346761      -0.00782859       0.00129621
H       -0.03709335       3.65022462       0.69961874       0.00884785       0.01126170      -0.00104918      -0.03376719      -0.00907862       0.01023711
H        0.08393270       2.67965880      -0.46711336       0.00793100       0.02846349       0.00013742      -0.07030881      -0.00754151       0.00515102
O       -1.39811489      -5.76096180      -0.10586075       0.00087592      -0.00433965      -0.00013380      -0.00066294      -0.00055289      -0.00456471
H       -0.52410980      -6.14501967      -0.03931586      -0.01595972      -0.00288001       0.00008316      -0.00251417      -0.00425932       0.00286743
H       -1.21475751      -4.81930168      -0.04767414      -0.00237884      -0.01175777       0.00009761       0.00301835      -0.00111526      -0.00152788
O        4.05458110      -4.39986547      -0.08769227       0.00214457       0.00063924      -0.00006669      -0.00085565       0.00104061      -0.00543595
H        3.76411072      -5.30311520       0.03152379       0.01577206       0.00171354      -0.00000083       0.00793858      -0.00070973       0.00115553
H        3.23332442      -3.89395009      -0.02886613       0.00634992      -0.00819253       0.00007960      -0.00384776      -0.00500556       0.00116278
21
Lattice="1.0 0.0 0.0 0.0 1.0 0.0 0.0 0.0 1.0" Properties=species:S:1:pos:R:3:mp2_forces:R:3:forces:R:3 mp2_energy=-25669.004809123442 energy=-25674.078846289405 free_energy=-25674.078846289405 stress="8.127356582282416e-08 3.96757195015877e-08 -4.136445834012444e-09 3.96757195015877e-08 -3.81258931445157e-08 1.3318116406353246e-09 -4.136445834012444e-09 1.3318116406353246e-09 -4.4556648249249265e-09" pbc="F F F"
C        0.15620586      -0.28586665      -0.03554662       0.02520861      -0.02838867       0.00005940       0.00297797      -0.00893274      -0.00287184
C        1.61436093       0.06978439       0.03133546      -0.03334038      -0.00005276       0.00015753       0.00070365      -0.00197550      -0.00167319
H        2.16108988      -0.81335071       0.36224702      -0.02379320       0.02684727      -0.00003962       0.00665280      -0.00140711      -0.00970925
F       -0.58564281       0.89567763      -0.38126098       0.00764467      -0.04609678       0.00057088       0.00028687      -0.01105737      -0.00065203
Cl       0.96336281      -3.43351856       0.23463510      -0.00303207       0.00327824       0.00000605       0.00038793      -0.00558043       0.01974434
H       -0.06479632      -1.02762721      -0.79436609       0.02531842       0.02018914       0.01193200       0.00459688      -0.00646748      -0.00559963
H       -0.23720134      -0.62317975       0.92165252       0.02518310       0.02041626      -0.01261682       0.00311319      -0.01258418      -0.00421312
H        1.77952997       0.89200021       0.73228217      -0.01807683      -0.00921250      -0.02739735      -0.00441799      -0.00770924       0.00612594
H        1.98679059       0.36449576      -0.95140488      -0.01896744      -0.00939623       0.02743771      -0.00317603       0.01015960       0.00057458
O       -2.86488373       2.38783781       0.33698051       0.01788502       0.00752596       0.00024092       0.08143579       0.05358062       0.00149911
H       -2.75620860       2.83289281      -0.50179098      -0.00005808      -0.00429745      -0.00004192       0.07257954       0.01374391      -0.01970631
H       -2.34487983       1.58608889       0.26034024      -0.01992517       0.01473028      -0.00017627       0.01878556       0.01328488       0.01159638
O        0.09064187       3.61301278      -0.24835851      -0.00762941      -0.01045076       0.00072020      -0.09894892      -0.00535472       0.00027724
H       -0.03874011       3.64505872       0.69816394       0.00884785       0.01126170      -0.00104918      -0.03425983      -0.01034619       0.00909460
H        0.10867353       2.67966885      -0.46943176       0.00793100       0.02846349       0.00013742      -0.05401534      -0.00482407       0.00224026
O       -1.39396090      -5.75159927      -0.10376158       0.00087592      -0.00433965      -0.00013380      -0.00207756      -0.00058483      -0.00497076
H       -0.52959750      -6.15700583      -0.03853023      -0.01595972      -0.00288001       0.00008316      -0.00578993      -0.00670294       0.00244783
H       -1.18647061      -4.81463664      -0.04486809      -0.00237884      -0.01175777       0.00009761       0.00495975      -0.00265079      -0.00092951
O        4.04494519      -4.39261836      -0.08846717       0.00214457       0.00063924      -0.00006669       0.00044773       0.00032198      -0.00555397
H        3.76052526      -5.29760488       0.03196014       0.01577206       0.00171354      -0.00000083       0.00732362      -0.00084890       0.00122952
H        3.22046214      -3.89176596      -0.02947427       0.00634992      -0.00819253       0.00007960      -0.00156566      -0.00406448       0.00104981
21
Lattice="1.0 0.0 0.0 0.0 1.0 0.0 0.0 0.0 1.0" Properties=species:S:1:pos:R:3:mp2_forces:R:3:forces:R:3 mp2_energy=-25669.004809123442 energy=-25674.074923603857 free_energy=-25674.074923603857 stress="7.580676750760955e-08 3.9067407741358026e-08 -3.9312459764547816e-09 3.9067407741358026e-08 -4.594127955156335e-08 2.2551485016318433e-09 -3.9312459764547816e-09 2.2551485016318433e-09 -4.504718610943528e-09" pbc="F F F"
C        0.15560311      -0.28698330      -0.03893030       0.02520861      -0.02838867       0.00005940       0.00278928      -0.00842361      -0.00238395
C        1.61429780       0.06539101       0.03492907      -0.03334038      -0.00005276       0.00015753       0.00028254      -0.00045199      -0.00203957
H        2.15595711      -0.81573307       0.37928322      -0.02379320       0.02684727      -0.00003962       0.00742408      -0.00096114      -0.01422672
F       -0.58284721       0.89561696      -0.38820517       0.00764467      -0.04609678       0.00057088      -0.00056244      -0.01113064      -0.00125601
Cl       0.96112811      -3.42987892       0.23141386      -0.00303207       0.00327824       0.00000605       0.00174823      -0.00741104       0.02109848
H       -0.06329956      -1.02884810      -0.79811655       0.02531842       0.02018914       0.01193200       0.00491672      -0.00715570      -0.00416018
H       -0.24302934      -0.62304814       0.91656591       0.02518310       0.02041626      -0.01261682       0.00364092      -0.01126079      -0.00306310
H        1.77716506       0.89490247       0.72766512      -0.01807683      -0.00921250      -0.02739735      -0.00481090      -0.00872801       0.00915156
H        1.99504964       0.34744758      -0.94825672      -0.01896744      -0.00939623       0.02743771      -0.00502114       0.01647734       0.00065689
O       -2.86393126       2.38498771       0.34595794       0.01788502       0.00752596       0.00024092       0.07830029       0.05308651       0.00126729
H       -2.77727743       2.82485378      -0.49807313      -0.00005808      -0.00429745      -0.00004192       0.06729843       0.01477720      -0.01962574
H       -2.34012429       1.58635793       0.26343404      -0.01992517       0.01473028      -0.00017627       0.01764152       0.01219669       0.01109127
O        0.10398788       3.61054598      -0.24899704      -0.00762941      -0.01045076       0.00072020      -0.09338889      -0.00411920      -0.00173903
H       -0.04015936       3.63661063       0.69556535       0.00884785       0.01126170      -0.00104918      -0.03684861      -0.01041136       0.00897712
H        0.11846805       2.67862906      -0.47626870       0.00793100       0.02846349       0.00013742      -0.04609241      -0.00506722       0.00315306
O       -1.39392177      -5.74126788      -0.10282450       0.00087592      -0.00433965      -0.00013380      -0.00300784      -0.00080376      -0.00519889
H       -0.53496628      -6.15827863      -0.03962277      -0.01595972      -0.00288001       0.00008316      -0.00780575      -0.00893642       0.00200355
H       -1.17314393      -4.80717859      -0.04351569      -0.00237884      -0.01175777       0.00009761       0.00576209      -0.00343603      -0.00054005
O        4.04277812      -4.38642009      -0.08838690       0.00214457       0.00063924      -0.00006669       0.00057170       0.00032771      -0.00563338
H        3.75107400      -5.28945396       0.02943025       0.01577206       0.00171354      -0.00000083       0.01044255      -0.00213754       0.00101451
H        3.22139784      -3.88050842      -0.03071133       0.00634992      -0.00819253       0.00007960      -0.00328037      -0.00643101       0.00145290
21
Lattice="1.0 0.0 0.0 0.0 1.0 0.0 0.0 0.0 1.0" Properties=species:S:1:pos:R:3:mp2_forces:R:3:forces:R:3 mp2_energy=-25669.004809123442 energy=-25674.059019992055 free_energy=-25674.059019992055 stress="6.119836097412734e-08 3.593796139243847e-08 -2.7610351928909517e-09 3.593796139243847e-08 -4.774069227274946e-08 3.875375787254406e-09 -2.7610351928909517e-09 3.875375787254406e-09 -4.258525986054239e-09" pbc="F F F"
C        0.15343856      -0.28418170      -0.04233620       0.02520861      -0.02838867       0.00005940       0.00275220      -0.00728895      -0.00128237
C        1.61362668       0.06114783       0.03881145      -0.03334038      -0.00005276       0.00015753       0.00015725       0.00195120      -0.00229464
H        2.14683050      -0.81747133       0.40227297      -0.02379320       0.02684727      -0.00003962       0.00885177      -0.00010081      -0.02018091
F       -0.57873752       0.90044192      -0.39927401       0.00764467      -0.04609678       0.00057088      -0.00227367      -0.01040360       0.00071853
Cl       0.96231200      -3.42569434       0.23243575      -0.00303207       0.00327824       0.00000605       0.00217291      -0.00787481       0.02136500
H       -0.06417891      -1.02854787      -0.79927255       0.02531842       0.02018914       0.01193200       0.00553239      -0.00670999      -0.00276974
H       -0.25183948      -0.61486679       0.91227029       0.02518310       0.02041626      -0.01261682       0.00529157      -0.01089979      -0.00141148
H        1.77590987       0.90168084       0.71821166      -0.01807683      -0.00921250      -0.02739735      -0.00443757      -0.00961797       0.01323582
H        2.00501784       0.32334678      -0.94567137      -0.01896744      -0.00939623       0.02743771      -0.00713656       0.02475289       0.00083810
O       -2.89076999       2.35724139       0.35855176       0.01788502       0.00752596       0.00024092       0.06270071       0.04983268       0.00147849
H       -2.83719768       2.81027837      -0.48130362      -0.00005808      -0.00429745      -0.00004192       0.05469661       0.01214564      -0.01960881
H       -2.33848617       1.58036211       0.25741475      -0.01992517       0.01473028      -0.00017627       0.01212260       0.01202053       0.01162810
O        0.16594840       3.60828231      -0.24757714      -0.00762941      -0.01045076       0.00072020      -0.07486171      -0.00250834      -0.00321712
H       -0.03647258       3.63165017       0.68644346       0.00884785       0.01126170      -0.00104918      -0.03794578      -0.01289926       0.00637892
H        0.15034228       2.67887929      -0.48493698       0.00793100       0.02846349       0.00013742      -0.02897981      -0.00493787       0.00192306
O       -1.39704714      -5.73076907      -0.10421057       0.00087592      -0.00433965      -0.00013380      -0.00315235      -0.00105796      -0.00513995
H       -0.53886745      -6.14943650      -0.04145286      -0.01595972      -0.00288001       0.00008316      -0.00781792      -0.00981301       0.00177567
H       -1.17447307      -4.79718873      -0.04380011      -0.00237884      -0.01175777       0.00009761       0.00545988      -0.00321587      -0.00059217
O        4.04661152      -4.38239975      -0.08892808       0.00214457       0.00063924      -0.00006669      -0.00059478       0.00085050      -0.00571976
H        3.73929049      -5.28053106       0.02710307       0.01577206       0.00171354      -0.00000083       0.01502852      -0.00369272       0.00072455
H        3.23294814      -3.86447984      -0.03241573       0.00634992      -0.00819253       0.00007960      -0.00756626      -0.01053249       0.00215072
21
Lattice="1.0 0.0 0.0 0.0 1.0 0.0 0.0 0.0 1.0" Properties=species:S:1:pos:R:3:mp2_forces:R:3:forces:R:3 mp2_energy=-25669.004809123442 energy=-25674.04684490907 free_energy=-25674.04684490907 stress="5.449312361738563e-08 3.383005912331967e-08 -2.516732008797029e-09 3.383005912331967e-08 -4.7417951506619626e-08 4.9914540160873806e-09 -2.516732008797029e-09 4.9914540160873806e-09 -4.2339935548967095e-09" pbc="F F F"
C        0.15183761      -0.28061232      -0.04370758       0.02520861      -0.02838867       0.00005940       0.00279786      -0.00661782      -0.00031027
C        1.61332913       0.05907062       0.04050908      -0.03334038      -0.00005276       0.00015753       0.00016368       0.00359222      -0.00241987
H        2.14057017      -0.81809709       0.41603398      -0.02379320       0.02684727      -0.00003962       0.01016283       0.00045180      -0.02353831
F       -0.57567241       0.90521862      -0.40741329       0.00764467      -0.04609678       0.00057088      -0.00357147      -0.00977213       0.00351551
Cl       0.96424563      -3.42308682       0.23141594      -0.00303207       0.00327824       0.00000605       0.00135812      -0.00767072       0.02156968
H       -0.06595784      -1.02797193      -0.79752244       0.02531842       0.02018914       0.01193200       0.00563598      -0.00557349      -0.00232054
H       -0.25730314      -0.60550397       0.91124202       0.02518310       0.02041626      -0.01261682       0.00667187      -0.01169531      -0.00030668
H        1.77688905       0.90683527       0.71052366      -0.01807683      -0.00921250      -0.02739735      -0.00467895      -0.00946269       0.01560874
H        2.01063240       0.30747902      -0.94518519      -0.01896744      -0.00939623       0.02743771      -0.00853171       0.02993457       0.00047607
O       -2.91685956       2.33047641       0.36537685       0.01788502       0.00752596       0.00024092       0.05521108       0.04849481       0.00098411
H       -2.88304982       2.79920905      -0.46686783      -0.00005808      -0.00429745      -0.00004192       0.04931721       0.01012605      -0.02109577
H       -2.33948354       1.57425042       0.24935590      -0.01992517       0.01473028      -0.00017627       0.00951449       0.01158501       0.01282464
O        0.21831353       3.60665002      -0.24428878      -0.00762941      -0.01045076       0.00072020      -0.06283694      -0.00237535      -0.00316501
H       -0.03000815       3.63537011       0.67857388       0.00884785       0.01126170      -0.00104918      -0.03813037      -0.01467697       0.00475731
H        0.17316602       2.67963911      -0.48748881       0.00793100       0.02846349       0.00013742      -0.02413600      -0.00534334       0.00045363
O       -1.39894214      -5.72857830      -0.10500633       0.00087592      -0.00433965      -0.00013380      -0.00312346      -0.00169047      -0.00523683
H       -0.53554773      -6.13651380      -0.04262909      -0.01595972      -0.00288001       0.00008316      -0.00713007      -0.00922836       0.00183548
H       -1.18831153      -4.79238191      -0.04510818      -0.00237884      -0.01175777       0.00009761       0.00410892      -0.00346628      -0.00081670
O        4.05068084      -4.38147439      -0.08876412       0.00214457       0.00063924      -0.00006669      -0.00092218       0.00086025      -0.00588040
H        3.73369029      -5.27628611       0.02715147       0.01577206       0.00171354      -0.00000083       0.01753963      -0.00483075       0.00062590
H        3.24198749      -3.85594800      -0.03386521       0.00634992      -0.00819253       0.00007960      -0.00942054      -0.01264105       0.00243930
21
Lattice="1.0 0.0 0.0 0.0 1.0 0.0 0.0 0.0 1.0" Properties=species:S:1:pos:R:3:mp2_forces:R:3:forces:R:3 mp2_energy=-25669.004809123442 energy=-25674.03549318511 free_energy=-25674.03549318511 stress="5.143735452227505e-08 3.154099470774563e-08 -3.35258319216314e-09 3.154099470774563e-08 -5.310670994207258e-08 6.785031929143152e-09 -3.35258319216314e-09 6.785031929143152e-09 -4.195610017083255e-09" pbc="F F F"
C        0.15073917      -0.27832295      -0.04844080       0.02520861      -0.02838867       0.00005940       0.00240338      -0.00585886       0.00138662
C        1.61334586       0.05598341       0.04211690      -0.03334038      -0.00005276       0.00015753      -0.00042460       0.00548215      -0.00248058
H        2.13304370      -0.81826608       0.43465802      -0.02379320       0.02684727      -0.00003962       0.01181521       0.00062413      -0.02876514
F       -0.57231806       0.90824146      -0.41939283       0.00764467      -0.04609678       0.00057088      -0.00462463      -0.00870544       0.00688964
Cl       0.96282648      -3.41741981       0.23160280      -0.00303207       0.00327824       0.00000605       0.00157227      -0.00848479       0.02294378
H       -0.06549129      -1.02831173      -0.79992007       0.02531842       0.02018914       0.01193200       0.00470415      -0.00424922      -0.00107186
H       -0.26408703      -0.59814882       0.90574262       0.02518310       0.02041626      -0.01261682       0.00778574      -0.01205625       0.00175887
H        1.77692293       0.91327462       0.69979314      -0.01807683      -0.00921250      -0.02739735      -0.00592686      -0.00991135       0.01954959
H        2.01999248       0.28607770      -0.94421302      -0.01896744      -0.00939623       0.02743771      -0.01191016       0.03779804      -0.00013699
O       -2.93900541       2.30551356       0.37355745       0.01788502       0.00752596       0.00024092       0.05229152       0.04646737      -0.00059692
H       -2.92436300       2.78389534      -0.45373093      -0.00005808      -0.00429745      -0.00004192       0.04625498       0.00902032      -0.02237254
H       -2.34247407       1.56626989       0.24569661      -0.01992517       0.01473028      -0.00017627       0.01089286       0.01129279       0.01181592
O        0.26667090       3.60289220      -0.23920006      -0.00762941      -0.01045076       0.00072020      -0.05479378      -0.00206044      -0.00262635
H       -0.01921904       3.64027064       0.67252329       0.00884785       0.01126170      -0.00104918      -0.03826925      -0.01591405       0.00338500
H        0.19345652       2.67883175      -0.48729834       0.00793100       0.02846349       0.00013742      -0.02267679      -0.00458852      -0.00186281
O       -1.39744930      -5.72361860      -0.10509969       0.00087592      -0.00433965      -0.00013380      -0.00414515      -0.00287654      -0.00571881
H       -0.53008751      -6.12317834      -0.04308134      -0.01595972      -0.00288001       0.00008316      -0.00814439      -0.01036109       0.00172609
H       -1.19576950      -4.78553031      -0.04551636      -0.00237884      -0.01175777       0.00009761       0.00279895      -0.00463569      -0.00081518
O        4.04899320      -4.37692158      -0.08943524       0.00214457       0.00063924      -0.00006669      -0.00016671       0.00024623      -0.00626822
H        3.72398978      -5.26869868       0.02785926       0.01577206       0.00171354      -0.00000083       0.02044221      -0.00641165       0.00051044
H        3.24448949      -3.84508963      -0.03588548       0.00634992      -0.00819253       0.00007960      -0.00987893      -0.01481715       0.00274944
21
Lattice="1.0 0.0 0.0 0.0 1.0 0.0 0.0 0.0 1.0" Properties=species:S:1:pos:R:3:mp2_forces:R:3:forces:R:3 mp2_energy=-25669.004809123442 energy=-25674.02537873519 free_energy=-25674.02537873519 stress="5.2283820958149207e-08 2.994003825616844e-08 -4.907213274705303e-09 2.994003825616844e-08 -6.42430264071296e-08 8.907960476549296e-09 -4.907213274705303e-09 8.907960476549296e-09 -4.083596361526458e-09" pbc="F F F"
C        0.15061410      -0.27873560      -0.05612702       0.02520861      -0.02838867       0.00005940       0.00154053      -0.00477007       0.00357977