9
Lattice="1.0 0.0 0.0 0.0 1.0 0.0 0.0 0.0 1.0" Properties=species:S:1:pos:R:3:forces:R:3 R1=H R2=H R3=CH3 R4=CH3 leaving_group=Cl nucleophile=Cl rxn=sn2 config=rcc label=H_H_CH3_CH3_Cl_Cl_sn2_rcc conformation=0 reactant_id=H_H_CH3_CH3_Cl_none_-_r product_id=H_H_CH3_CH3_none_Cl_sn2_pc mp2_author_energy=-29302.391748605172 mp2_my_energy=0 hash=59123 address=T id=71 energy=-17372.33216497299 free_energy=-17372.33216497299 cell="(1,0,0), (0,1,0), (0,0,1)" pbc="F F F"
C        0.09142836      -0.02057665       0.00018700      -0.00383810       0.00153641      -0.00068481
C        1.58722280       0.14924827      -0.00111085       0.00020147      -0.00237977      -0.00061630
H        2.03195864      -0.84661872      -0.00635447      -0.00043287       0.00066109       0.00360198
F       -0.53491861       1.24651010      -0.01033438       0.00123778      -0.00105707       0.00337249
Cl       0.88543890      -3.39675651       0.00603569      -0.00050197      -0.00038193      -0.00016305
H       -0.24798218      -0.56713807      -0.87777751      -0.00113173       0.00148985       0.00279851
H       -0.24989953      -0.55273097       0.88632969       0.00349898      -0.00246302      -0.00540624
H        1.91405155       0.69490750       0.88785996      -0.00213133       0.00382493      -0.00088743
H        1.90859158       0.70242064      -0.88742268       0.00309776      -0.00123049      -0.00201515
9
Lattice="1.0 0.0 0.0 0.0 1.0 0.0 0.0 0.0 1.0" Properties=species:S:1:pos:R:3:forces:R:3 R1=H R2=H R3=CH3 R4=CH3 leaving_group=Cl nucleophile=Cl rxn=sn2 config=rcc label=H_H_CH3_CH3_Cl_Cl_sn2_rcc conformation=0 reactant_id=H_H_CH3_CH3_Cl_none_-_r product_id=H_H_CH3_CH3_none_Cl_sn2_pc mp2_author_energy=-29302.391748605172 mp2_my_energy=0 hash=59123 address=T id=71 energy=-17372.33116268779 free_energy=-17372.33116268779 cell="(1,0,0), (0,1,0), (0,0,1)" stress="-5.664682489260696e-11 2.81306274895147e-09 -3.7679211590131813e-10 2.81306274895147e-09 -8.536356473138975e-10 9.131521323700514e-09 -3.7679211590131813e-10 9.131521323700514e-09 3.3663345745618667e-10" pbc="F F F"
C        0.09088431      -0.01999616       0.01609038      -0.00020282       0.00029908      -0.00118995
C        1.58703611       0.14873562       0.01041964      -0.00015171      -0.00029545      -0.00088199
H        2.03120600      -0.84599238       0.06298220      -0.00061753      -0.00085662      -0.00517064
F       -0.53501825       1.24567576      -0.04437119       0.00030930       0.00084191       0.00249443
Cl       0.88754233      -3.39507702      -0.09315468       0.00154643      -0.00020899       0.00732722
H       -0.24816331      -0.60325045      -0.83727259      -0.00062705       0.00301856      -0.00304464
H       -0.25132215      -0.51444030       0.92416244      -0.00033165      -0.00239152      -0.00263367
H        1.91039857       0.74847931       0.86556323       0.00031079      -0.00432976       0.00191612
H        1.91332790       0.64513121      -0.90700698      -0.00023575       0.00392280       0.00118312
9
Lattice="1.0 0.0 0.0 0.0 1.0 0.0 0.0 0.0 1.0" Properties=species:S:1:pos:R:3:forces:R:3 R1=H R2=H R3=CH3 R4=CH3 leaving_group=Cl nucleophile=Cl rxn=sn2 config=rcc label=H_H_CH3_CH3_Cl_Cl_sn2_rcc conformation=0 reactant_id=H_H_CH3_CH3_Cl_none_-_r product_id=H_H_CH3_CH3_none_Cl_sn2_pc mp2_author_energy=-29302.391748605172 mp2_my_energy=0 hash=59123 address=T id=71 energy=-17372.327969942166 free_energy=-17372.327969942166 cell="(1,0,0), (0,1,0), (0,0,1)" stress="-6.860695952200328e-11 9.798017690255257e-09 -5.898183179409546e-10 9.798017690255257e-09 -9.196674963105497e-09 1.4823243429684734e-08 -5.898183179409546e-10 1.4823243429684734e-08 1.35848765149267e-09" pbc="F F F"
C        0.08875465      -0.01731878       0.03450841      -0.00071077       0.00140432      -0.00166954
C        1.58558583       0.14629516       0.02357880      -0.00055601      -0.00067003      -0.00135345
H        2.02755372      -0.84448490       0.13453983      -0.00223921      -0.00301012      -0.01160028
F       -0.53299395       1.24574029      -0.08728057       0.00095386       0.00254380       0.00099938
Cl       0.89901799      -3.39588879      -0.20348039       0.00536079      -0.00331055       0.01168726
H       -0.24966635      -0.64227182      -0.78841491      -0.00166977       0.00376805      -0.00326476
H       -0.25665367      -0.46330775       0.96689738      -0.00139973      -0.00028834      -0.00270815
H        1.90836100       0.79883876       0.83970714       0.00146021      -0.00959373       0.00547831
H        1.91593229       0.58166342      -0.92264323      -0.00119937       0.00915659       0.00243124
9
Lattice="1.0 0.0 0.0 0.0 1.0 0.0 0.0 0.0 1.0" Properties=species:S:1:pos:R:3:forces:R:3 R1=H R2=H R3=CH3 R4=CH3 leaving_group=Cl nucleophile=Cl rxn=sn2 config=rcc label=H_H_CH3_CH3_Cl_Cl_sn2_rcc conformation=0 reactant_id=H_H_CH3_CH3_Cl_none_-_r product_id=H_H_CH3_CH3_none_Cl_sn2_pc mp2_author_energy=-29302.391748605172 mp2_my_energy=0 hash=59123 address=T id=71 energy=-17372.321875361402 free_energy=-17372.321875361402 cell="(1,0,0), (0,1,0), (0,0,1)" stress="1.5521162889375465e-09 1.9859174023522683e-08 -1.1949436766455554e-09 1.9859174023522683e-08 -3.2963655915552985e-08 1.7952101868643034e-08 -1.1949436766455554e-09 1.7952101868643034e-08 1.3400215172760496e-09" pbc="F F F"
C        0.08876439      -0.02024514       0.05086976      -0.00136866       0.00368712      -0.00115822
C        1.58588124       0.14456864       0.03548301      -0.00126084      -0.00048417      -0.00122223
H        2.03173322      -0.83211412       0.22477829      -0.00511490      -0.00826470      -0.02618907
F       -0.53329726       1.23849090      -0.10743902       0.00171479       0.00391830      -0.01068790
Cl       0.89404189      -3.37788187      -0.30862254       0.01089933      -0.01221980       0.01348317
H       -0.24845824      -0.67060733      -0.75199641      -0.00182990      -0.00150151       0.00299309
H       -0.25633488      -0.43677850       0.99736540      -0.00328061       0.01156238       0.00167203
H        1.90050112       0.86337966       0.79767981       0.00489022      -0.01999164       0.01592614
H        1.92306004       0.50045335      -0.94070584      -0.00464944       0.02329403       0.00518299
9
Lattice="1.0 0.0 0.0 0.0 1.0 0.0 0.0 0.0 1.0" Properties=species:S:1:pos:R:3:forces:R:3 R1=H R2=H R3=CH3 R4=CH3 leaving_group=Cl nucleophile=Cl rxn=sn2 config=rcc label=H_H_CH3_CH3_Cl_Cl_sn2_rcc conformation=0 reactant_id=H_H_CH3_CH3_Cl_none_-_r product_id=H_H_CH3_CH3_none_Cl_sn2_pc mp2_author_energy=-29302.391748605172 mp2_my_energy=0 hash=59123 address=T id=71 energy=-17372.31151271513 free_energy=-17372.31151271513 cell="(1,0,0), (0,1,0), (0,0,1)" stress="6.3621904536986054e-09 2.2462331336607236e-08 -2.8333361998835777e-09 2.2462331336607236e-08 -5.631734819014696e-08 2.1614452929171548e-08 -2.8333361998835777e-09 2.1614452929171548e-08 2.3737359944146603e-10" pbc="F F F"
C        0.09070588      -0.02781160       0.05685280      -0.00124548       0.00533245      -0.00052549
C        1.58800924       0.14361808       0.04032671      -0.00174962       0.00066741      -0.00085992
H        2.04205531      -0.81214915       0.30090705      -0.00728838      -0.01575608      -0.04412976
F       -0.53544667       1.23090732      -0.08689302       0.00173380       0.00370525      -0.02698389
Cl       0.87588772      -3.34723527      -0.35946352       0.01258905      -0.02052302       0.01511400
H       -0.24720133      -0.67037418      -0.75143985       0.00056081      -0.01115799       0.01129769
H       -0.25086310      -0.45537104       0.99968365      -0.00409310       0.02535621       0.00798365
H        1.88822827       0.91797037       0.75240494       0.00859601      -0.03063470       0.03105546
H        1.93451620       0.42971107      -0.95496630      -0.00910306       0.04301046       0.00704826
9
Lattice="1.0 0.0 0.0 0.0 1.0 0.0 0.0 0.0 1.0" Properties=species:S:1:pos:R:3:forces:R:3 R1=H R2=H R3=CH3 R4=CH3 leaving_group=Cl nucleophile=Cl rxn=sn2 config=rcc label=H_H_CH3_CH3_Cl_Cl_sn2_rcc conformation=0 reactant_id=H_H_CH3_CH3_Cl_none_-_r product_id=H_H_CH3_CH3_none_Cl_sn2_pc mp2_author_energy=-29302.391748605172 mp2_my_energy=0 hash=59123 address=T id=71 energy=-17372.29701477544 free_energy=-17372.29701477544 cell="(1,0,0), (0,1,0), (0,0,1)" stress="1.256603876404238e-08 2.1400620318854262e-08 -4.416188268888615e-09 2.1400620318854262e-08 -7.565433654051086e-08 2.4972166705735484e-08 -4.416188268888615e-09 2.4972166705735484e-08 -1.6186211544468265e-09" pbc="F F F"
C        0.09201306      -0.03470465       0.05894960      -0.00071947       0.00637303       0.00003254
C        1.59011207       0.14208749       0.04232191      -0.00217126       0.00197818      -0.00061303
H        2.05153766      -0.79047855       0.36483509      -0.00861056      -0.02445625      -0.05830000
F       -0.53713734       1.22613286      -0.05379076       0.00150637       0.00386344      -0.04151369
Cl       0.86107016      -3.31903799      -0.38766004       0.01225397      -0.02666112       0.01631895
H       -0.24874038      -0.65789743      -0.76279656       0.00343429      -0.02070680       0.01784300
H       -0.24612919      -0.48517514       0.99202797      -0.00379589       0.03614686       0.01435878
H        1.87650657       0.96139279       0.70820309       0.01089223      -0.03713423       0.04592803
H        1.94665890       0.36694621      -0.96467785      -0.01278969       0.06059688       0.00594540
9
Lattice="1.0 0.0 0.0 0.0 1.0 0.0 0.0 0.0 1.0" Properties=species:S:1:pos:R:3:forces:R:3 R1=H R2=H R3=CH3 R4=CH3 leaving_group=Cl nucleophile=Cl rxn=sn2 config=rcc label=H_H_CH3_CH3_Cl_Cl_sn2_rcc conformation=0 reactant_id=H_H_CH3_CH3_Cl_none_-_r product_id=H_H_CH3_CH3_none_Cl_sn2_pc mp2_author_energy=-29302.391748605172 mp2_my_energy=0 hash=59123 address=T id=71 energy=-17372.273145693107 free_energy=-17372.273145693107 cell="(1,0,0), (0,1,0), (0,0,1)" stress="1.9471522505493014e-08 1.843402438702783e-08 -5.694905496333596e-09 1.843402438702783e-08 -9.84816353999999e-08 2.6915109830851956e-08 -5.694905496333596e-09 2.6915109830851956e-08 -2.4930933400460803e-09" pbc="F F F"
C        0.09230892      -0.04164758       0.05994158      -0.00002103       0.00735626       0.00070130
C        1.59237248       0.13910697       0.04357761      -0.00252647       0.00359980      -0.00046376
H        2.06109213      -0.76018541       0.43998642      -0.00919883      -0.03431771      -0.06972699
F       -0.53835546       1.22262209      -0.00415368       0.00114650       0.00512024      -0.05567854
Cl       0.84958347      -3.28813296      -0.41334239       0.01088100      -0.03405250       0.01648416
H       -0.25423406      -0.63288379      -0.78241815       0.00625293      -0.03059466       0.02351820
H       -0.24242911      -0.52628712       0.97644961      -0.00270757       0.04586927       0.02161157
H        1.86327567       1.00845697       0.64950465       0.01202101      -0.04036179       0.06129142
H        1.96227746       0.28821643      -0.97213321      -0.01584754       0.07738110       0.00226263
9
Lattice="1.0 0.0 0.0 0.0 1.0 0.0 0.0 0.0 1.0" Properties=species:S:1:pos:R:3:forces:R:3 R1=H R2=H R3=CH3 R4=CH3 leaving_group=Cl nucleophile=Cl rxn=sn2 config=rcc label=H_H_CH3_CH3_Cl_Cl_sn2_rcc conformation=0 reactant_id=H_H_CH3_CH3_Cl_none_-_r product_id=H_H_CH3_CH3_none_Cl_sn2_pc mp2_author_energy=-29302.391748605172 mp2_my_energy=0 hash=59123 address=T id=71 energy=-17372.246743255262 free_energy=-17372.246743255262 cell="(1,0,0), (0,1,0), (0,0,1)" stress="2.211119759446934e-08 1.7520819539097316e-08 -5.724783822655248e-09 1.7520819539097316e-08 -1.354324056792556e-07 2.312769489695978e-08 -5.724783822655248e-09 2.312769489695978e-08 -4.911305319287277e-09" pbc="F F F"
C        0.09160918      -0.04757500       0.06016725       0.00020784       0.00894133       0.00134442
C        1.59420181       0.13486123       0.04434188      -0.00278543       0.00561403      -0.00039450
H        2.06817168      -0.72899178       0.50662689      -0.00937462      -0.04156013      -0.07151342
F       -0.53870844       1.21932586       0.04590391      -0.00002621       0.00856072      -0.06241031
Cl       0.84405713      -3.25677916      -0.43292501       0.01023463      -0.04585027       0.01415768
H       -0.26151200      -0.60496489      -0.80209491       0.00746490      -0.03535456       0.02523469
H       -0.24111612      -0.56549564       0.95841680      -0.00149319       0.05065687       0.02701184
H        1.85264289       1.04590005       0.59118711       0.01245167      -0.03642998       0.07045194
H        1.97654538       0.21298491      -0.97421147      -0.01667958       0.08542199      -0.00388233
9
Lattice="1.0 0.0 0.0 0.0 1.0 0.0 0.0 0.0 1.0" Properties=species:S:1:pos:R:3:forces:R:3 R1=H R2=H R3=CH3 R4=CH3 leaving_group=Cl nucleophile=Cl rxn=sn2 config=rcc label=H_H_CH3_CH3_Cl_Cl_sn2_rcc conformation=0 reactant_id=H_H_CH3_CH3_Cl_none_-_r product_id=H_H_CH3_CH3_none_Cl_sn2_pc mp2_author_energy=-29302.391748605172 mp2_my_energy=0 hash=59123 address=T id=71 energy=-17372.20868156741 free_energy=-17372.20868156741 cell="(1,0,0), (0,1,0), (0,0,1)" stress="1.6122448842387515e-08 2.6414523642621304e-08 -3.4499342132590426e-09 2.6414523642621304e-08 -2.1782233989509951e-07 3.5986981829646275e-09 -3.4499342132590426e-09 3.5986981829646275e-09 -8.80887060892572e-09" pbc="F F F"
C        0.09063483      -0.05710119       0.05934017      -0.00108951       0.01414043       0.00251619
C        1.59687656       0.12731757       0.04501129      -0.00340974       0.00999459       0.00037185
H        2.07749988      -0.68214977       0.59024621      -0.01336100      -0.04425752      -0.06057433
F       -0.53800713       1.21090856       0.11638970      -0.00528531       0.01577739      -0.05964555
Cl       0.83699836      -3.20290143      -0.45250107       0.01507546      -0.07288946       0.00493879
H       -0.27157788      -0.56461371      -0.82939886       0.00705009      -0.03216626       0.02327237
H       -0.24061491      -0.62096573       0.92909169      -0.00088647       0.05235771       0.03032169
H        1.83891813       1.08727300       0.50894213       0.01897872      -0.02310766       0.06974703
H        1.99516366       0.11149828      -0.96970880      -0.01707225       0.08015078      -0.01094804
9
Lattice="1.0 0.0 0.0 0.0 1.0 0.0 0.0 0.0 1.0" Properties=species:S:1:pos:R:3:forces:R:3 R1=H R2=H R3=CH3 R4=CH3 leaving_group=Cl nucleophile=Cl rxn=sn2 config=rcc label=H_H_CH3_CH3_Cl_Cl_sn2_rcc conformation=0 reactant_id=H_H_CH3_CH3_Cl_none_-_r product_id=H_H_CH3_CH3_none_Cl_sn2_pc mp2_author_energy=-29302.391748605172 mp2_my_energy=0 hash=59123 address=T id=71 energy=-17372.153938327414 free_energy=-17372.153938327414 cell="(1,0,0), (0,1,0), (0,0,1)" stress="1.6929167913718312e-08 6.479288807330916e-08 6.582824286686768e-09 6.479288807330916e-08 -4.996346220155266e-07 -7.61705065876967e-08 6.582824286686768e-09 -7.61705065876967e-08 -3.1001338678657894e-10" pbc="F F F"
C        0.09160753      -0.07919917       0.05615524      -0.01179829       0.04933601       0.00889449
C        1.60193072       0.11019949       0.04481023      -0.01153196       0.03306895       0.00511282
H        2.09766748      -0.60763030       0.69472974      -0.05722057      -0.03472039      -0.03018422
F       -0.52879444       1.18669565       0.21576801      -0.03026085       0.02794295      -0.03259117
Cl       0.81723080      -3.08433233      -0.46609332       0.04925850      -0.15961423      -0.02519977
H       -0.28480211      -0.51012894      -0.86660237       0.01283515      -0.01318342       0.02373472
H       -0.24036467      -0.70563291       0.88018125       0.00521053       0.04694730       0.01559562
H        1.80856067       1.12666604       0.38944152       0.08305155       0.01160015       0.04150875
H        2.02285552      -0.02737195      -0.95097784      -0.03954405       0.03862268      -0.00687123
9
Lattice="1.0 0.0 0.0 0.0 1.0 0.0 0.0 0.0 1.0" Properties=species:S:1:pos:R:3:forces:R:3 R1=H R2=H R3=CH3 R4=CH3 leaving_group=Cl nucleophile=Cl rxn=sn2 config=rcc label=H_H_CH3_CH3_Cl_Cl_sn2_rcc conformation=0 reactant_id=H_H_CH3_CH3_Cl_none_-_r product_id=H_H_CH3_CH3_none_Cl_sn2_pc mp2_author_energy=-29302.391748605172 mp2_my_energy=0 hash=59123 address=T id=71 energy=-17371.993343638966 free_energy=-17371.993343638966 cell="(1,0,0), (0,1,0), (0,0,1)" stress="3.953566948075109e-07 -1.9871332586581008e-07 -1.853220430693165e-08 -1.9871332586581008e-07 -2.16944142500868e-06 -4.554089648774995e-07 -1.853220430693165e-08 -4.554089648774995e-07 1.7318526769594706e-07" pbc="F F F"
C        0.10599671      -0.13941789       0.04599596      -0.22634248       0.58553506       0.09694128
C        1.61610429       0.07056508       0.03914750      -0.10265281       0.19639045       0.03024489
H        2.16711222      -0.55915420       0.73829182      -0.30237525      -0.04881487      -0.02984374
F       -0.49221440       1.15207438       0.25935514       0.01769891      -0.13375752      -0.02061647
Cl       0.75678298      -2.89169777      -0.44114292       0.16587117      -0.65993573      -0.12300963
H       -0.30132354      -0.49187987      -0.89559254       0.09268489      -0.10883189       0.10114710
H       -0.24699102      -0.76477181       0.86035313       0.07305948      -0.01321610      -0.11414772
H        1.70820169       1.11582805       0.33123997       0.47871200       0.19663084       0.04130030
H        2.07222258      -0.08228039      -0.94023561      -0.19665591      -0.01400023       0.01798399
9
Lattice="1.0 0.0 0.0 0.0 1.0 0.0 0.0 0.0 1.0" Properties=species:S:1:pos:R:3:forces:R:3 R1=H R2=H R3=CH3 R4=CH3 leaving_group=Cl nucleophile=Cl rxn=sn2 config=rcc label=H_H_CH3_CH3_Cl_Cl_sn2_rcc conformation=0 reactant_id=H_H_CH3_CH3_Cl_none_-_r product_id=H_H_CH3_CH3_none_Cl_sn2_pc mp2_author_energy=-29302.391748605172 mp2_my_energy=0 hash=59123 address=T id=71 energy=-17371.335919520614 free_energy=-17371.335919520614 cell="(1,0,0), (0,1,0), (0,0,1)" stress="1.1876322517153838e-06 -1.5996446213232022e-06 -2.5720270870803725e-07 -1.5996446213232022e-06 -1.899486120906838e-06 -5.14204001933149e-07 -2.5720270870803725e-07 -5.14204001933149e-07 2.230875011690806e-07" pbc="F F F"
C        0.15849694      -0.27527586       0.02355932      -1.09087632       2.80668643       0.47951071
C        1.63989619       0.02464757       0.03212850      -0.19547192       0.29029724       0.04131096
H        2.23677130      -0.54726183       0.74642731      -0.36509004      -0.05652957      -0.04973870
F       -0.49701879       1.18310165       0.26534976       0.69502342      -1.41745125      -0.21202314
Cl       0.71904955      -2.73747719      -0.41344433       0.21928038      -1.15532783      -0.21352354
H       -0.32253908      -0.46558505      -0.91928077       0.14699906      -0.43613186       0.02296350
H       -0.26365133      -0.76186564       0.88698001       0.13194092      -0.30897552      -0.17327948
H        1.59688049       1.07030892       0.31979014       0.68932298       0.33208064       0.06664108
H        2.11800625      -0.08132699      -0.94409749      -0.23112848      -0.05464828       0.03813860
9
Lattice="1.0 0.0 0.0 0.0 1.0 0.0 0.0 0.0 1.0" Properties=species:S:1:pos:R:3:forces:R:3 R1=H R2=H R3=CH3 R4=CH3 leaving_group=Cl nucleophile=Cl rxn=sn2 config=rcc label=H_H_CH3_CH3_Cl_Cl_sn2_rcc conformation=0 reactant_id=H_H_CH3_CH3_Cl_none_-_r product_id=H_H_CH3_CH3_none_Cl_sn2_pc mp2_author_energy=-29302.391748605172 mp2_my_energy=0 hash=59123 address=T id=71 energy=-17370.703802073833 free_energy=-17370.703802073833 cell="(1,0,0), (0,1,0), (0,0,1)" stress="6.951002703183303e-07 -1.5817873864313975e-06 -2.6473505030928505e-07 -1.5817873864313975e-06 -6.504620698117016e-07 -1.8695891989234553e-07 -2.6473505030928505e-07 -1.8695891989234553e-07 -1.8070747810317475e-07" pbc="F F F"
C        0.20593247      -0.39735056       0.00287606      -0.87272198       2.54585223       0.43796718
C        1.64837605       0.01205036       0.03027298      -0.06826109       0.19622863       0.02722506
H        2.25253894      -0.54462702       0.74879757      -0.20799527      -0.03848295      -0.02642079
F       -0.52730657       1.24474764       0.27477173       0.61931952      -1.28255441      -0.19888213
Cl       0.70950840      -2.68719970      -0.40430208       0.16930269      -0.91524079      -0.17046483
H       -0.32899730      -0.44662646      -0.92032513       0.01752003      -0.35339344      -0.14599791
H       -0.26936000      -0.74852167       0.89438389       0.01999646      -0.32578314       0.01659470
H        1.56706160       1.05596769       0.31661446       0.45116418       0.21743177       0.04157765
H        2.12813792      -0.07917469      -0.94567701      -0.12832455      -0.04405790       0.01840108
9
Lattice="1.0 0.0 0.0 0.0 1.0 0.0 0.0 0.0 1.0" Properties=species:S:1:pos:R:3:forces:R:3 R1=H R2=H R3=CH3 R4=CH3 leaving_group=Cl nucleophile=Cl rxn=sn2 config=rcc label=H_H_CH3_CH3_Cl_Cl_sn2_rcc conformation=0 reactant_id=H_H_CH3_CH3_Cl_none_-_r product_id=H_H_CH3_CH3_none_Cl_sn2_pc mp2_author_energy=-29302.391748605172 mp2_my_energy=0 hash=59123 address=T id=71 energy=-17370.377681327736 free_energy=-17370.377681327736 cell="(1,0,0), (0,1,0), (0,0,1)" stress="1.0669669595911965e-07 -4.595478730255694e-07 -7.854977056372847e-08 -4.595478730255694e-07 -4.479781817127108e-07 -7.99678968460032e-08 -7.854977056372847e-08 -7.99678968460032e-08 -1.9280524405857002e-07" pbc="F F F"
C        0.24472039      -0.51051212      -0.01664924      -0.23075855       0.75663833       0.13120913
C        1.65140759       0.00333214       0.02905817       0.00210485       0.06541824       0.00891787
H        2.26168153      -0.54272940       0.75016830      -0.05970181      -0.00537255       0.00064149
F       -0.55492437       1.30176248       0.28384538       0.15563278      -0.31364241      -0.04479067
Cl       0.70198765      -2.64644953      -0.39686596       0.06374624      -0.35239018      -0.06790864
H       -0.32979997      -0.43089379      -0.91379853      -0.02006568      -0.09598508      -0.09348076
H       -0.27025844      -0.73415452       0.89362357      -0.01343763      -0.11107038       0.05510707
H        1.54712901       1.04639085       0.31446932       0.13655035       0.07090964       0.00662880
H        2.13394811      -0.07748052      -0.94643856      -0.03407055      -0.01450561       0.00367571
9
Lattice="1.0 0.0 0.0 0.0 1.0 0.0 0.0 0.0 1.0" Properties=species:S:1:pos:R:3:forces:R:3 R1=H R2=H R3=CH3 R4=CH3 leaving_group=Cl nucleophile=Cl rxn=sn2 config=rcc label=H_H_CH3_CH3_Cl_Cl_sn2_rcc conformation=0 reactant_id=H_H_CH3_CH3_Cl_none_-_r product_id=H_H_CH3_CH3_none_Cl_sn2_pc mp2_author_energy=-29302.391748605172 mp2_my_energy=0 hash=59123 address=T id=71 energy=-17370.375977036754 free_energy=-17370.375977036754 cell="(1,0,0), (0,1,0), (0,0,1)" stress="2.1712484610807972e-10 4.848627836870833e-07 9.609656723771755e-08 4.848627836870833e-07 1.3759692540406355e-07 -1.05223180501153e-09 9.609656723771755e-08 -1.05223180501153e-09 1.6985056811534767e-07" pbc="F F F"
C        0.27760010      -0.61835345      -0.03539134       0.16427418      -0.50660469      -0.08805171
C        1.65111587      -0.00598981       0.02771366       0.00217900      -0.06777770      -0.01197573
H        2.26985979      -0.54140642       0.75070800       0.05949992       0.02689114       0.01471281
F       -0.57740401       1.34643167       0.29100108      -0.11094646       0.25784953       0.04822475
Cl       0.69298040      -2.59598283      -0.38762860      -0.06497011       0.22149285       0.03367629
H       -0.32705743      -0.41707893      -0.90043716       0.04340812       0.07162832       0.08773332
H       -0.26834634      -0.71857377       0.88565608       0.04126949       0.07691931      -0.05736574
H        1.52797199       1.03653973       0.31257074      -0.17996685      -0.08289880      -0.02694310
H        2.13917114      -0.07632061      -0.94678001       0.04525272       0.00250003      -0.00001088
9
Lattice="1.0 0.0 0.0 0.0 1.0 0.0 0.0 0.0 1.0" Properties=species:S:1:pos:R:3:forces:R:3 R1=H R2=H R3=CH3 R4=CH3 leaving_group=Cl nucleophile=Cl rxn=sn2 config=rcc label=H_H_CH3_CH3_Cl_Cl_sn2_rcc conformation=0 reactant_id=H_H_CH3_CH3_Cl_none_-_r product_id=H_H_CH3_CH3_none_Cl_sn2_pc mp2_author_energy=-29302.391748605172 mp2_my_energy=0 hash=59123 address=T id=71 energy=-17370.48984647491 free_energy=-17370.48984647491 cell="(1,0,0), (0,1,0), (0,0,1)" stress="9.168050721190432e-08 6.809112337633773e-07 1.348640378274968e-07 6.809112337633773e-07 -7.22396911601551e-08 -5.003011540828813e-08 1.348640378274968e-07 -5.003011540828813e-08 2.2437103556224685e-07" pbc="F F F"
C        0.30697401      -0.70262941      -0.04985227       0.17680675      -0.50705057      -0.08766038
C        1.65216136      -0.02227044       0.02475532       0.00645896      -0.09796976      -0.01846573
H        2.28509876      -0.53388700       0.75410895       0.08938838       0.04938583       0.02482402
F       -0.59622544       1.40004447       0.30002262      -0.11500331       0.32126845       0.05987719
Cl       0.67690174      -2.56326983      -0.38293024      -0.09693430       0.19838507       0.02548662
H       -0.31307296      -0.40453489      -0.88071695       0.08352134       0.07661969       0.11889062
H       -0.25464247      -0.70484271       0.87208518       0.08273681       0.08157724      -0.08224086
H        1.47867220       1.01445033       0.30684279      -0.29529493      -0.13123597      -0.04113158
H        2.15002431      -0.07379493      -0.94690295       0.06832029       0.00902002       0.00042010
9
Lattice="1.0 0.0 0.0 0.0 1.0 0.0 0.0 0.0 1.0" Properties=species:S:1:pos:R:3:forces:R:3 R1=H R2=H R3=CH3 R4=CH3 leaving_group=Cl nucleophile=Cl rxn=sn2 config=rcc label=H_H_CH3_CH3_Cl_Cl_sn2_rcc conformation=0 reactant_id=H_H_CH3_CH3_Cl_none_-_r product_id=H_H_CH3_CH3_none_Cl_sn2_pc mp2_author_energy=-29302.391748605172 mp2_my_energy=0 hash=59123 address=T id=71 energy=-17370.5751375062 free_energy=-17370.5751375062 cell="(1,0,0), (0,1,0), (0,0,1)" stress="1.5291755471295435e-07 3.178951128525156e-07 6.974498885011247e-08 3.178951128525156e-07 -4.2298517714316236e-07 -1.013519385038515e-07 6.974498885011247e-08 -1.013519385038515e-07 5.4148139973271155e-08" pbc="F F F"
C        0.33360110      -0.76112007      -0.05976014       0.07042633      -0.15365981      -0.02663088
C        1.65558964      -0.04139935       0.02077804       0.00935580      -0.05045309      -0.01121707
H        2.30516057      -0.51244854       0.76404272       0.05012880       0.05932124       0.03000233
F       -0.60279524       1.47522388       0.31432324      -0.01945145       0.19671471       0.04283485
Cl       0.65180802      -2.56674714      -0.38807907      -0.06532636      -0.00713287      -0.01619626
H       -0.29048133      -0.39687373      -0.86294899       0.05897159       0.02174220       0.04745042
H       -0.23028262      -0.70191603       0.86088512       0.06508385       0.00767674      -0.02969207
H        1.39652910       0.98200858       0.29380276      -0.21631033      -0.08408867      -0.04072536
H        2.16676228      -0.06746201      -0.94563123       0.04712177       0.00987955       0.00417405
9
Lattice="1.0 0.0 0.0 0.0 1.0 0.0 0.0 0.0 1.0" Properties=species:S:1:pos:R:3:forces:R:3 R1=H R2=H R3=CH3 R4=CH3 leaving_group=Cl nucleophile=Cl rxn=sn2 config=rcc label=H_H_CH3_CH3_Cl_Cl_sn2_rcc conformation=0 reactant_id=H_H_CH3_CH3_Cl_none_-_r product_id=H_H_CH3_CH3_none_Cl_sn2_pc mp2_author_energy=-29302.391748605172 mp2_my_energy=0 hash=59123 address=T id=71 energy=-17370.606200604692 free_energy=-17370.606200604692 cell="(1,0,0), (0,1,0), (0,0,1)" stress="1.4047260227063905e-07 4.3172899534427236e-08 1.9015023756616898e-08 4.3172899534427236e-08 -2.925027632543862e-07 -7.807628222491466e-08 1.9015023756616898e-08 -7.807628222491466e-08 -1.0923319369747926e-08" pbc="F F F"
C        0.34778501      -0.79027253      -0.06460704       0.02254491      -0.04612626      -0.00817030
C        1.65595644      -0.05034408       0.01831557       0.00070979      -0.01413204      -0.00460549
H        2.31306639      -0.48444912       0.77790920       0.01064094       0.04764179       0.02486984
F       -0.58507856       1.53342629       0.32843353       0.02676111       0.09206600       0.02703810
Cl       0.63205181      -2.58371798      -0.39971927      -0.03109148      -0.02617297      -0.02060587
H       -0.27696809      -0.39967616      -0.85557649       0.02064399      -0.00379586       0.01208323
H       -0.21182238      -0.71478232       0.85821257       0.02967753      -0.02088904      -0.00448159
H        1.33187042       0.96226324       0.27671621      -0.10238668      -0.03002024      -0.03239288
H        2.17903048      -0.06318175      -0.94227185       0.02249990       0.00142861       0.00626497
9
Lattice="1.0 0.0 0.0 0.0 1.0 0.0 0.0 0.0 1.0" Properties=species:S:1:pos:R:3:forces:R:3 R1=H R2=H R3=CH3 R4=CH3 leaving_group=Cl nucleophile=Cl rxn=sn2 config=rcc label=H_H_CH3_CH3_Cl_Cl_sn2_rcc conformation=0 reactant_id=H_H_CH3_CH3_Cl_none_-_r product_id=H_H_CH3_CH3_none_Cl_sn2_pc mp2_author_energy=-29302.391748605172 mp2_my_energy=0 hash=59123 address=T id=71 energy=-17370.61998872717 free_energy=-17370.61998872717 cell="(1,0,0), (0,1,0), (0,0,1)" stress="7.221084086624136e-08 -1.69308554723335e-08 3.854662500059165e-09 -1.69308554723335e-08 -9.507131209913079e-08 -3.4671116060745885e-08 3.854662500059165e-09 -3.4671116060745885e-08 -1.2302384042628792e-08" pbc="F F F"
C        0.35459036      -0.81333809      -0.06713579       0.00296881      -0.01013750      -0.00203640