
                                 *****************
                                 * O   R   C   A *
                                 *****************

                                            #,                                       
                                            ###                                      
                                            ####                                     
                                            #####                                    
                                            ######                                   
                                           ########,                                 
                                     ,,################,,,,,                         
                               ,,#################################,,                 
                          ,,##########################################,,             
                       ,#########################################, ''#####,          
                    ,#############################################,,   '####,        
                  ,##################################################,,,,####,       
                ,###########''''           ''''###############################       
              ,#####''   ,,,,##########,,,,          '''####'''          '####       
            ,##' ,,,,###########################,,,                        '##       
           ' ,,###''''                  '''############,,,                           
         ,,##''                                '''############,,,,        ,,,,,,###''
      ,#''                                            '''#######################'''  
     '                                                          ''''####''''         
             ,#######,   #######,   ,#######,      ##                                
            ,#'     '#,  ##    ##  ,#'     '#,    #''#        ######   ,####,        
            ##       ##  ##   ,#'  ##            #'  '#       #        #'  '#        
            ##       ##  #######   ##           ,######,      #####,   #    #        
            '#,     ,#'  ##    ##  '#,     ,#' ,#      #,         ##   #,  ,#        
             '#######'   ##     ##  '#######'  #'      '#     #####' # '####'        



                  #######################################################
                  #                        -***-                        #
                  #          Department of theory and spectroscopy      #
                  #    Directorship and core code : Frank Neese         #
                  #        Max Planck Institute fuer Kohlenforschung    #
                  #                Kaiser Wilhelm Platz 1               #
                  #                 D-45470 Muelheim/Ruhr               #
                  #                      Germany                        #
                  #                                                     #
                  #                  All rights reserved                #
                  #                        -***-                        #
                  #######################################################


                         Program Version 5.0.3 -  RELEASE  -


 With contributions from (in alphabetic order):
   Daniel Aravena         : Magnetic Suceptibility
   Michael Atanasov       : Ab Initio Ligand Field Theory (pilot matlab implementation)
   Alexander A. Auer      : GIAO ZORA, VPT2 properties, NMR spectrum
   Ute Becker             : Parallelization
   Giovanni Bistoni       : ED, misc. LED, open-shell LED, HFLD
   Martin Brehm           : Molecular dynamics
   Dmytro Bykov           : SCF Hessian
   Vijay G. Chilkuri      : MRCI spin determinant printing, contributions to CSF-ICE
   Dipayan Datta          : RHF DLPNO-CCSD density
   Achintya Kumar Dutta   : EOM-CC, STEOM-CC
   Dmitry Ganyushin       : Spin-Orbit,Spin-Spin,Magnetic field MRCI
   Miquel Garcia          : C-PCM and meta-GGA Hessian, CC/C-PCM, Gaussian charge scheme
   Yang Guo               : DLPNO-NEVPT2, F12-NEVPT2, CIM, IAO-localization
   Andreas Hansen         : Spin unrestricted coupled pair/coupled cluster methods
   Benjamin Helmich-Paris : MC-RPA, TRAH-SCF, COSX integrals
   Lee Huntington         : MR-EOM, pCC
   Robert Izsak           : Overlap fitted RIJCOSX, COSX-SCS-MP3, EOM
   Marcus Kettner         : VPT2
   Christian Kollmar      : KDIIS, OOCD, Brueckner-CCSD(T), CCSD density, CASPT2, CASPT2-K
   Simone Kossmann        : Meta GGA functionals, TD-DFT gradient, OOMP2, MP2 Hessian
   Martin Krupicka        : Initial AUTO-CI
   Lucas Lang             : DCDCAS
   Marvin Lechner         : AUTO-CI (C++ implementation), FIC-MRCC
   Dagmar Lenk            : GEPOL surface, SMD
   Dimitrios Liakos       : Extrapolation schemes; Compound Job, initial MDCI parallelization
   Dimitrios Manganas     : Further ROCIS development; embedding schemes
   Dimitrios Pantazis     : SARC Basis sets
   Anastasios Papadopoulos: AUTO-CI, single reference methods and gradients
   Taras Petrenko         : DFT Hessian,TD-DFT gradient, ASA, ECA, R-Raman, ABS, FL, XAS/XES, NRVS
   Peter Pinski           : DLPNO-MP2, DLPNO-MP2 Gradient
   Christoph Reimann      : Effective Core Potentials
   Marius Retegan         : Local ZFS, SOC
   Christoph Riplinger    : Optimizer, TS searches, QM/MM, DLPNO-CCSD(T), (RO)-DLPNO pert. Triples
   Tobias Risthaus        : Range-separated hybrids, TD-DFT gradient, RPA, STAB
   Michael Roemelt        : Original ROCIS implementation
   Masaaki Saitow         : Open-shell DLPNO-CCSD energy and density
   Barbara Sandhoefer     : DKH picture change effects
   Avijit Sen             : IP-ROCIS
   Kantharuban Sivalingam : CASSCF convergence, NEVPT2, FIC-MRCI
   Bernardo de Souza      : ESD, SOC TD-DFT
   Georgi Stoychev        : AutoAux, RI-MP2 NMR, DLPNO-MP2 response
   Willem Van den Heuvel  : Paramagnetic NMR
   Boris Wezisla          : Elementary symmetry handling
   Frank Wennmohs         : Technical directorship


 We gratefully acknowledge several colleagues who have allowed us to
 interface, adapt or use parts of their codes:
   Stefan Grimme, W. Hujo, H. Kruse, P. Pracht,  : VdW corrections, initial TS optimization,
                  C. Bannwarth, S. Ehlert          DFT functionals, gCP, sTDA/sTD-DF
   Ed Valeev, F. Pavosevic, A. Kumar             : LibInt (2-el integral package), F12 methods
   Garnet Chan, S. Sharma, J. Yang, R. Olivares  : DMRG
   Ulf Ekstrom                                   : XCFun DFT Library
   Mihaly Kallay                                 : mrcc  (arbitrary order and MRCC methods)
   Jiri Pittner, Ondrej Demel                    : Mk-CCSD
   Frank Weinhold                                : gennbo (NPA and NBO analysis)
   Christopher J. Cramer and Donald G. Truhlar   : smd solvation model
   Lars Goerigk                                  : TD-DFT with DH, B97 family of functionals
   V. Asgeirsson, H. Jonsson                     : NEB implementation
   FAccTs GmbH                                   : IRC, NEB, NEB-TS, DLPNO-Multilevel, CI-OPT
                                                   MM, QMMM, 2- and 3-layer-ONIOM, Crystal-QMMM,
                                                   LR-CPCM, SF, NACMEs, symmetry and pop. for TD-DFT,
                                                   nearIR, NL-DFT gradient (VV10), updates on ESD,
                                                   ML-optimized integration grids
   S Lehtola, MJT Oliveira, MAL Marques          : LibXC Library
   Liviu Ungur et al                             : ANISO software


 Your calculation uses the libint2 library for the computation of 2-el integrals
 For citations please refer to: http://libint.valeyev.net

 Your ORCA version has been built with support for libXC version: 5.1.0
 For citations please refer to: https://tddft.org/programs/libxc/

 This ORCA versions uses:
   CBLAS   interface :  Fast vector & matrix operations
   LAPACKE interface :  Fast linear algebra routines
   SCALAPACK package :  Parallel linear algebra routines
   Shared memory     :  Shared parallel matrices
   BLAS/LAPACK       :  OpenBLAS 0.3.15  USE64BITINT DYNAMIC_ARCH NO_AFFINITY Prescott SINGLE_THREADED
        Core in use  :  Prescott
   Copyright (c) 2011-2014, The OpenBLAS Project


================================================================================

----- Orbital basis set information -----
Your calculation utilizes the basis: 6-311G(d)
   H, Li - Ne  : R. Krishnan, J. S. Binkley, R. Seeger and J. A. Pople, J. Chem. Phys. 72, 650 (1980).
   Na - Ar     : A. D. McLean and G. S. Chandler J. Chem. Phys. 72, 5639, (1980).
   K  - Ca     : J.-P. Blaudeau, M. P. McGrath, L. A. Curtiss and L. Radom, J. Chem. Phys. 107, 5016 (1997).
   Ga - Kr     : L. A. Curtiss, M. P. McGrath, J.-P. Blandeau, N. E. Davis, R. C. Binning and L. Radom, J. Chem. Phys. 103, 6104 (1995).
   Pol./Diff.
   H, Li - Cl  : T. Clark, J. Chandrasekhar and P. v. R. Schleyer, J. Comp. Chem. 4, 294 (1983).
   H - Ne      : M. J. Frisch, J. A. Pople and J. S. Binkley, J. Chem. Phys. 80, 3265 (1984).

----- AuxJ basis set information -----
Your calculation utilizes the AutoAux generation procedure.
  G. L. Stoychev, A. A. Auer, F. Neese, J. Chem. Theory Comput. 13, 554 (2017)

----- AuxC basis set information -----
Your calculation utilizes the AutoAux generation procedure.
  G. L. Stoychev, A. A. Auer, F. Neese, J. Chem. Theory Comput. 13, 554 (2017)

----- AuxJK basis set information -----
Your calculation utilizes the AutoAux generation procedure.
  G. L. Stoychev, A. A. Auer, F. Neese, J. Chem. Theory Comput. 13, 554 (2017)

================================================================================
                                        WARNINGS
                       Please study these warnings very carefully!
================================================================================

WARNING: Old DensityContainer found on disk!
         Will remove this file - 
         If you want to keep old densities, please start your calculation with a different basename. 


WARNING: Post HF methods need fully converged wavefunctions
  ===> : Setting SCFConvForced true
         You can overwrite this default with %scf ConvForced false 


INFO   : the flag for use of the SHARK integral package has been found!

================================================================================
                                       INPUT FILE
================================================================================
NAME = orca.inp
|  1> ! RI-MP2 6-311G(d) autoaux nofrozencore tightscf engrad 
|  2> %pal nprocs 1 end 
|  3> *xyz -1 1 
|  4> C   0.09670477677356482 -0.03587772800721156 0.05903777666320976
|  5> C   1.5909772091130385 0.14945518734182778 0.038287876445345655
|  6> H   2.0558269369278674 -0.804740121009663 0.2835440423296499
|  7> F   -0.5404178197657767 1.2160753107914277 -0.09560163699122057
|  8> Cl   0.8428765796498557 -3.3382561732733333 -0.3582112951818888
|  9> H   -0.23661606553822456 -0.6899880786251796 -0.7412231693459727
| 10> H   -0.2406430657027845 -0.455636389124739 1.006395624724474
| 11> H   1.8870671888031698 0.915806108885693 0.7593925191680546
| 12> H   1.93011576973929 0.45242747302117875 -0.9542092878116522
| 13> *
| 14> 
| 15>                          ****END OF INPUT****
================================================================================

                     *******************************
                     * Energy+Gradient Calculation *
                     *******************************

---------------------------------
CARTESIAN COORDINATES (ANGSTROEM)
---------------------------------
  C      0.096705   -0.035878    0.059038
  C      1.590977    0.149455    0.038288
  H      2.055827   -0.804740    0.283544
  F     -0.540418    1.216075   -0.095602
  Cl     0.842877   -3.338256   -0.358211
  H     -0.236616   -0.689988   -0.741223
  H     -0.240643   -0.455636    1.006396
  H      1.887067    0.915806    0.759393
  H      1.930116    0.452427   -0.954209

----------------------------
CARTESIAN COORDINATES (A.U.)
----------------------------
  NO LB      ZA    FRAG     MASS         X           Y           Z
   0 C     6.0000    0    12.011    0.182746   -0.067799    0.111565
   1 C     6.0000    0    12.011    3.006511    0.282429    0.072354
   2 H     1.0000    0     1.008    3.884950   -1.520738    0.535821
   3 F     9.0000    0    18.998   -1.021242    2.298049   -0.180661
   4 Cl   17.0000    0    35.453    1.592806   -6.308390   -0.676921
   5 H     1.0000    0     1.008   -0.447140   -1.303889   -1.400709
   6 H     1.0000    0     1.008   -0.454749   -0.861028    1.901812
   7 H     1.0000    0     1.008    3.566040    1.730623    1.435044
   8 H     1.0000    0     1.008    3.647390    0.854964   -1.803194

--------------------------------
INTERNAL COORDINATES (ANGSTROEM)
--------------------------------
 C      0   0   0     0.000000000000     0.00000000     0.00000000
 C      1   0   0     1.505864851147     0.00000000     0.00000000
 H      2   1   0     1.089368873630   108.21146719     0.00000000
 F      1   2   3     1.413232097935   109.68321846   172.97980205
 Cl     3   2   1     2.881284794935   122.71168100    30.05696251
 H      1   2   3     1.085992963335   111.62560040   293.05992104
 H      1   2   3     1.089719134773   111.50468475    54.31064008
 H      2   1   3     1.093139934675   110.24093821   239.06996260
 H      2   1   3     1.091722396148   110.78953712   118.67479959

---------------------------
INTERNAL COORDINATES (A.U.)
---------------------------
 C      0   0   0     0.000000000000     0.00000000     0.00000000
 C      1   0   0     2.845672163366     0.00000000     0.00000000
 H      2   1   0     2.058608829979   108.21146719     0.00000000
 F      1   2   3     2.670621628764   109.68321846   172.97980205
 Cl     3   2   1     5.444839176258   122.71168100    30.05696251
 H      1   2   3     2.052229284068   111.62560040   293.05992104
 H      1   2   3     2.059270727614   111.50468475    54.31064008
 H      2   1   3     2.065735102587   110.24093821   239.06996260
 H      2   1   3     2.063056342988   110.78953712   118.67479959

---------------------
BASIS SET INFORMATION
---------------------
There are 4 groups of distinct atoms

 Group   1 Type C   : 11s5p1d contracted to 4s3p1d pattern {6311/311/1}
 Group   2 Type H   : 5s contracted to 3s pattern {311}
 Group   3 Type F   : 11s5p1d contracted to 4s3p1d pattern {6311/311/1}
 Group   4 Type Cl  : 13s10p1d contracted to 6s5p1d pattern {631111/52111/1}

Atom   0C    basis set group =>   1
Atom   1C    basis set group =>   1
Atom   2H    basis set group =>   2
Atom   3F    basis set group =>   3
Atom   4Cl   basis set group =>   4
Atom   5H    basis set group =>   2
Atom   6H    basis set group =>   2
Atom   7H    basis set group =>   2
Atom   8H    basis set group =>   2
---------------------------------
AUXILIARY/J BASIS SET INFORMATION
---------------------------------
There are 4 groups of distinct atoms

 Group   1 Type C   : 14s12p11d3f contracted to 14s12p11d3f pattern {11111111111111/111111111111/11111111111/111}
 Group   2 Type H   : 11s2p contracted to 11s2p pattern {11111111111/11}
 Group   3 Type F   : 14s12p10d3f contracted to 14s12p10d3f pattern {11111111111111/111111111111/1111111111/111}
 Group   4 Type Cl  : 20s17p16d5f contracted to 20s17p16d5f pattern {11111111111111111111/11111111111111111/1111111111111111/11111}

Atom   0C    basis set group =>   1
Atom   1C    basis set group =>   1
Atom   2H    basis set group =>   2
Atom   3F    basis set group =>   3
Atom   4Cl   basis set group =>   4
Atom   5H    basis set group =>   2
Atom   6H    basis set group =>   2
Atom   7H    basis set group =>   2
Atom   8H    basis set group =>   2
---------------------------------
AUXILIARY/C BASIS SET INFORMATION
---------------------------------
There are 4 groups of distinct atoms

 Group   1 Type C   : 14s12p11d3f contracted to 14s12p11d3f pattern {11111111111111/111111111111/11111111111/111}
 Group   2 Type H   : 11s2p contracted to 11s2p pattern {11111111111/11}
 Group   3 Type F   : 14s12p10d3f contracted to 14s12p10d3f pattern {11111111111111/111111111111/1111111111/111}
 Group   4 Type Cl  : 20s17p16d5f contracted to 20s17p16d5f pattern {11111111111111111111/11111111111111111/1111111111111111/11111}

Atom   0C    basis set group =>   1
Atom   1C    basis set group =>   1
Atom   2H    basis set group =>   2
Atom   3F    basis set group =>   3
Atom   4Cl   basis set group =>   4
Atom   5H    basis set group =>   2
Atom   6H    basis set group =>   2
Atom   7H    basis set group =>   2
Atom   8H    basis set group =>   2
----------------------------------
AUXILIARY/JK BASIS SET INFORMATION
----------------------------------
There are 4 groups of distinct atoms

 Group   1 Type C   : 14s12p11d3f contracted to 14s12p11d3f pattern {11111111111111/111111111111/11111111111/111}
 Group   2 Type H   : 11s2p contracted to 11s2p pattern {11111111111/11}
 Group   3 Type F   : 14s12p10d3f contracted to 14s12p10d3f pattern {11111111111111/111111111111/1111111111/111}
 Group   4 Type Cl  : 20s17p16d5f contracted to 20s17p16d5f pattern {11111111111111111111/11111111111111111/1111111111111111/11111}

Atom   0C    basis set group =>   1
Atom   1C    basis set group =>   1
Atom   2H    basis set group =>   2
Atom   3F    basis set group =>   3
Atom   4Cl   basis set group =>   4
Atom   5H    basis set group =>   2
Atom   6H    basis set group =>   2
Atom   7H    basis set group =>   2
Atom   8H    basis set group =>   2

Checking for AutoStart:
The File: orca.gbw exists
Trying to determine its content:
     ... Fine, the file contains calculation information
     ... Fine, the calculation information was read
     ... Fine, the file contains a basis set
     ... Fine, the basis set was read
     ... Fine, the file contains a geometry
     ... Fine, the geometry was read
     ... Fine, the file contains a set of orbitals
     ... Fine, the orbitals can be read
     => possible old guess file was deleted
     => GBW file was renamed to GES file
     => GES file is set as startup file
     => Guess is set to MORead
     ... now leaving AutoStart

------------------------------------------------------------------------------
                           ORCA GTO INTEGRAL CALCULATION
------------------------------------------------------------------------------
------------------------------------------------------------------------------
                   ___                                                        
                  /   \      - P O W E R E D   B Y -                         
                 /     \                                                     
                 |  |  |   _    _      __       _____    __    __             
                 |  |  |  | |  | |    /  \     |  _  \  |  |  /  |          
                  \  \/   | |  | |   /    \    | | | |  |  | /  /          
                 / \  \   | |__| |  /  /\  \   | |_| |  |  |/  /          
                |  |  |   |  __  | /  /__\  \  |    /   |      \           
                |  |  |   | |  | | |   __   |  |    \   |  |\   \          
                \     /   | |  | | |  |  |  |  | |\  \  |  | \   \       
                 \___/    |_|  |_| |__|  |__|  |_| \__\ |__|  \__/        
                                                                              
                      - O R C A' S   B I G   F R I E N D -                    
                                      &                                       
                       - I N T E G R A L  F E E D E R -                       
                                                                              
 v1 FN, 2020, v2 2021                                                         
------------------------------------------------------------------------------


Reading SHARK input file orca.SHARKINP.tmp ... ok
----------------------
SHARK INTEGRAL PACKAGE
----------------------

Number of atoms                             ...      9
Number of basis functions                   ...     95
Number of shells                            ...     51
Maximum angular momentum                    ...      2
Integral batch strategy                     ... SHARK/LIBINT Hybrid
RI-J (if used) integral strategy            ... SPLIT-RIJ (Revised 2003 algorithm where possible)
Printlevel                                  ...      1
Contraction scheme used                     ... SEGMENTED contraction
Coulomb Range Separation                    ... NOT USED
Exchange Range Separation                   ... NOT USED
Finite Nucleus Model                        ... NOT USED
Auxiliary Coulomb fitting basis             ... AVAILABLE
   # of basis functions in Aux-J            ...    644
   # of shells in Aux-J                     ...    242
   Maximum angular momentum in Aux-J        ...      3
Auxiliary J/K fitting basis                 ... AVAILABLE
   # of basis functions in Aux-JK           ...    644
   # of shells in Aux-JK                    ...    242
   Maximum angular momentum in Aux-JK       ...      3
Auxiliary Correlation fitting basis         ... AVAILABLE
   # of basis functions in Aux-C            ...    644
   # of shells in Aux-C                     ...    242
   Maximum angular momentum in Aux-C        ...      3
Auxiliary 'external' fitting basis          ... NOT available
Integral threshold                          ...     2.500000e-11
Primitive cut-off                           ...     2.500000e-12
Primitive pair pre-selection threshold      ...     2.500000e-12

Calculating pre-screening integrals         ... done (  0.0 sec) Dimension = 51
Organizing shell pair data                  ... done (  0.0 sec)
Shell pair information
Total number of shell pairs                 ...      1326
Shell pairs after pre-screening             ...      1190
Total number of primitive shell pairs       ...      5157
Primitive shell pairs kept                  ...      3445
          la=0 lb=0:    502 shell pairs
          la=1 lb=0:    411 shell pairs
          la=1 lb=1:     95 shell pairs
          la=2 lb=0:    122 shell pairs
          la=2 lb=1:     51 shell pairs
          la=2 lb=2:      9 shell pairs

Calculating one electron integrals          ... done (  0.0 sec)
Calculating RI/J V-Matrix + Cholesky decomp.... done (  0.0 sec)
Calculating RI/JK V-Matrix + Cholesky decomp... done (  0.0 sec)
Calculating RI/C V-Matrix + Cholesky decomp.... done (  0.0 sec)
Calculating Nuclear repulsion               ... done (  0.0 sec) ENN=    139.914751985787 Eh

SHARK setup successfully completed in   0.2 seconds

Maximum memory used throughout the entire GTOINT-calculation: 9.9 MB
-------------------------------------------------------------------------------
                                 ORCA SCF
-------------------------------------------------------------------------------

------------
SCF SETTINGS
------------
Hamiltonian:
 Ab initio Hamiltonian  Method          .... Hartree-Fock(GTOs)


General Settings:
 Integral files         IntName         .... orca
 Hartree-Fock type      HFTyp           .... RHF
 Total Charge           Charge          ....   -1
 Multiplicity           Mult            ....    1
 Number of Electrons    NEL             ....   44
 Basis Dimension        Dim             ....   95
 Nuclear Repulsion      ENuc            ....    139.9147519858 Eh

Convergence Acceleration:
 DIIS                   CNVDIIS         .... on
   Start iteration      DIISMaxIt       ....    12
   Startup error        DIISStart       ....  0.200000
   # of expansion vecs  DIISMaxEq       ....     5
   Bias factor          DIISBfac        ....   1.050
   Max. coefficient     DIISMaxC        ....  10.000
 Trust-Rad. Augm. Hess. CNVTRAH         .... auto
   Auto Start mean grad. ratio tolernc. ....  1.125000
   Auto Start start iteration           ....     1
   Auto Start num. interpolation iter.  ....    10
   Max. Number of Micro iterations      ....    16
   Max. Number of Macro iterations      .... Maxiter - #DIIS iter
   Number of Davidson start vectors     ....     2
   Converg. threshold I  (grad. norm)   ....   1.000e-05
   Converg. threshold II (energy diff.) ....   1.000e-08
   Grad. Scal. Fac. for Micro threshold ....   0.100
   Minimum threshold for Micro iter.    ....   0.010
   NR start threshold (gradient norm)   ....   0.001
   Initial trust radius                 ....   0.400
   Minimum AH scaling param. (alpha)    ....   1.000
   Maximum AH scaling param. (alpha)    .... 1000.000
   Orbital update algorithm             .... Taylor
   White noise on init. David. guess    .... on
   Maximum white noise                  ....   0.010
   Quad. conv. algorithm                .... NR
 SOSCF                  CNVSOSCF        .... on
   Start iteration      SOSCFMaxIt      ....   150
   Startup grad/error   SOSCFStart      ....  0.003300
 Level Shifting         CNVShift        .... on
   Level shift para.    LevelShift      ....    0.2500
   Turn off err/grad.   ShiftErr        ....    0.0010
 Zerner damping         CNVZerner       .... off
 Static damping         CNVDamp         .... on
   Fraction old density DampFac         ....    0.7000
   Max. Damping (<1)    DampMax         ....    0.9800
   Min. Damping (>=0)   DampMin         ....    0.0000
   Turn off err/grad.   DampErr         ....    0.1000
 Fernandez-Rico         CNVRico         .... off

SCF Procedure:
 Maximum # iterations   MaxIter         ....   125
 SCF integral mode      SCFMode         .... Direct
   Integral package                     .... SHARK and LIBINT hybrid scheme
 Reset frequency        DirectResetFreq ....    20
 Integral Threshold     Thresh          ....  2.500e-11 Eh
 Primitive CutOff       TCut            ....  2.500e-12 Eh

Convergence Tolerance:
 Convergence Check Mode ConvCheckMode   .... Total+1el-Energy
 Convergence forced     ConvForced      .... 1
 Energy Change          TolE            ....  1.000e-08 Eh
 1-El. energy change                    ....  1.000e-05 Eh
 Orbital Gradient       TolG            ....  1.000e-05
 Orbital Rotation angle TolX            ....  1.000e-05
 DIIS Error             TolErr          ....  5.000e-07


Diagonalization of the overlap matrix:
Smallest eigenvalue                        ... 4.085e-03
Time for diagonalization                   ...    0.002 sec
Threshold for overlap eigenvalues          ... 1.000e-08
Number of eigenvalues below threshold      ... 0
Time for construction of square roots      ...    0.002 sec
Total time needed                          ...    0.003 sec

---------------------
INITIAL GUESS: MOREAD
---------------------
Guess MOs are being read from file: orca.ges
Input geometry compatible with but different from current geometry
Input basis set matches current basis set (good)
MOs were renormalized
MOs were reorthogonalized (Cholesky)
                      ------------------
                      INITIAL GUESS DONE (   0.0 sec)
                      ------------------
--------------
SCF ITERATIONS
--------------
ITER       Energy         Delta-E        Max-DP      RMS-DP      [F,P]     Damp
               ***  Starting incremental Fock matrix formation  ***
                      *** Initiating the SOSCF procedure ***
                      *** Re-Reading the Fockian *** 
                      *** Removing any level shift *** 
ITER      Energy       Delta-E        Grad      Rot      Max-DP    RMS-DP
  0   -637.69705842 -637.6970584154  0.000852  0.000852  0.000453  0.000026
               *** Restarting incremental Fock matrix formation ***
  1   -637.69706923  -0.0000108126  0.000454  0.000446  0.000233  0.000015
  2   -637.69707156  -0.0000023301  0.000178  0.000282  0.000177  0.000010
  3   -637.69707195  -0.0000003871  0.000010  0.000014  0.000021  0.000001
  4   -637.69707195  -0.0000000034  0.000003  0.000004  0.000007  0.000000
                  ***Gradient check signals convergence***
              ***Rediagonalizing the Fockian in SOSCF/NRSCF***

               *****************************************************
               *                     SUCCESS                       *
               *           SCF CONVERGED AFTER   5 CYCLES          *
               *****************************************************


----------------
TOTAL SCF ENERGY
----------------

Total Energy       :         -637.69707195 Eh          -17352.61952 eV

Components:
Nuclear Repulsion  :          139.91475199 Eh            3807.27396 eV
Electronic Energy  :         -777.61182393 Eh          -21159.89348 eV
One Electron Energy:        -1167.82905222 Eh          -31778.24409 eV
Two Electron Energy:          390.21722829 Eh           10618.35061 eV

Virial components:
Potential Energy   :        -1275.44170669 Eh          -34706.53329 eV
Kinetic Energy     :          637.74463474 Eh           17353.91377 eV
Virial Ratio       :            1.99992542


---------------
SCF CONVERGENCE
---------------

  Last Energy change         ...   -4.8749e-10  Tolerance :   1.0000e-08
  Last MAX-Density change    ...    2.1072e-06  Tolerance :   1.0000e-07
  Last RMS-Density change    ...    8.3427e-08  Tolerance :   5.0000e-09
  Last Orbital Gradient      ...    1.0413e-06  Tolerance :   1.0000e-05
  Last Orbital Rotation      ...    6.5560e-07  Tolerance :   1.0000e-05

             **** THE GBW FILE WAS UPDATED (orca.gbw) ****
             **** DENSITY orca.scfp WAS UPDATED ****
             **** ENERGY FILE WAS UPDATED (orca.en.tmp) ****
             **** THE GBW FILE WAS UPDATED (orca.gbw) ****
             **** DENSITY orca.scfp WAS UPDATED ****
----------------
ORBITAL ENERGIES
----------------

  NO   OCC          E(Eh)            E(eV) 
   0   2.0000    -104.513851     -2843.9665 
   1   2.0000     -26.122476      -710.8287 
   2   2.0000     -11.156304      -303.5785 
   3   2.0000     -11.082588      -301.5726 
   4   2.0000     -10.239382      -278.6277 
   5   2.0000      -7.706271      -209.6983 
   6   2.0000      -7.706242      -209.6975 
   7   2.0000      -7.706228      -209.6971 
   8   2.0000      -1.434041       -39.0222 
   9   2.0000      -0.891153       -24.2495 
  10   2.0000      -0.748690       -20.3729 
  11   2.0000      -0.716934       -19.5088 
  12   2.0000      -0.555661       -15.1203 
  13   2.0000      -0.545546       -14.8451 
  14   2.0000      -0.507096       -13.7988 
  15   2.0000      -0.440849       -11.9961 
  16   2.0000      -0.407036       -11.0760 
  17   2.0000      -0.367319        -9.9953 
  18   2.0000      -0.352914        -9.6033 
  19   2.0000      -0.166387        -4.5276 
  20   2.0000      -0.165207        -4.4955 
  21   2.0000      -0.165095        -4.4925 
  22   0.0000       0.297554         8.0969 
  23   0.0000       0.330971         9.0062 
  24   0.0000       0.338916         9.2224 
  25   0.0000       0.391888        10.6638 
  26   0.0000       0.402834        10.9617 
  27   0.0000       0.460562        12.5325 
  28   0.0000       0.514270        13.9940 
  29   0.0000       0.585630        15.9358 
  30   0.0000       0.596899        16.2424 
  31   0.0000       0.650430        17.6991 
  32   0.0000       0.662797        18.0356 
  33   0.0000       0.696702        18.9582 
  34   0.0000       0.704321        19.1656 
  35   0.0000       0.737342        20.0641 
  36   0.0000       0.831831        22.6353 
  37   0.0000       0.866833        23.5877 
  38   0.0000       0.910609        24.7789 
  39   0.0000       0.931062        25.3355 
  40   0.0000       0.943675        25.6787 
  41   0.0000       0.965609        26.2756 
  42   0.0000       0.975088        26.5335 
  43   0.0000       1.095636        29.8138 
  44   0.0000       1.167339        31.7649 
  45   0.0000       1.239328        33.7238 
  46   0.0000       1.368883        37.2492 
  47   0.0000       1.443750        39.2864 
  48   0.0000       1.454292        39.5733 
  49   0.0000       1.456837        39.6426 
  50   0.0000       1.457431        39.6587 
  51   0.0000       1.461943        39.7815 
  52   0.0000       1.472563        40.0705 
  53   0.0000       1.489303        40.5260 
  54   0.0000       1.625576        44.2342 
  55   0.0000       1.661477        45.2111 
  56   0.0000       1.860376        50.6234 
  57   0.0000       1.889535        51.4169 
  58   0.0000       1.940961        52.8162 
  59   0.0000       1.977622        53.8138 
  60   0.0000       2.087222        56.7962 
  61   0.0000       2.163067        58.8600 
  62   0.0000       2.207959        60.0816 
  63   0.0000       2.242070        61.0098 
  64   0.0000       2.401222        65.3406 
  65   0.0000       2.772970        75.4564 
  66   0.0000       2.781269        75.6822 
  67   0.0000       2.801575        76.2347 
  68   0.0000       2.847898        77.4952 
  69   0.0000       2.871072        78.1258 
  70   0.0000       2.904541        79.0366 
  71   0.0000       2.917183        79.3806 
  72   0.0000       2.954352        80.3920 
  73   0.0000       3.417121        92.9846 
  74   0.0000       3.492424        95.0337 
  75   0.0000       3.628346        98.7323 
  76   0.0000       3.669788        99.8600 
  77   0.0000       3.708546       100.9147 
  78   0.0000       4.250455       115.6608 
  79   0.0000       4.398763       119.6964 
  80   0.0000       4.410746       120.0225 
  81   0.0000       4.555106       123.9507 
  82   0.0000       4.626299       125.8880 
  83   0.0000       5.285447       143.8243 
  84   0.0000       6.918038       188.2494 
  85   0.0000       6.924204       188.4172 
  86   0.0000       7.159509       194.8201 
  87   0.0000      10.386571       282.6330 
  88   0.0000      24.648704       670.7253 
  89   0.0000      24.943632       678.7507 
  90   0.0000      26.557734       722.6727 
  91   0.0000      26.582663       723.3510 
  92   0.0000      26.672713       725.8014 
  93   0.0000      68.881740      1874.3674 
  94   0.0000     219.187896      5964.4059 

                    ********************************
                    * MULLIKEN POPULATION ANALYSIS *
                    ********************************

-----------------------
MULLIKEN ATOMIC CHARGES
-----------------------
   0 C :    0.002620
   1 C :   -0.643549
   2 H :    0.275412
   3 F :   -0.421800
   4 Cl:   -0.976266
   5 H :    0.239549
   6 H :    0.184636
   7 H :    0.161686
   8 H :    0.177710
Sum of atomic charges:   -1.0000000

--------------------------------
MULLIKEN REDUCED ORBITAL CHARGES
--------------------------------
  0 C s       :     3.197639  s :     3.197639
      pz      :     1.142728  p :     2.675486
      px      :     0.892052
      py      :     0.640706
      dz2     :     0.021713  d :     0.124255
      dxz     :     0.013659
      dyz     :     0.028743
      dx2y2   :     0.030049
      dxy     :     0.030090
  1 C s       :     3.361009  s :     3.361009
      pz      :     1.089640  p :     3.213092
      px      :     0.981299
      py      :     1.142153
      dz2     :     0.015008  d :     0.069447
      dxz     :     0.010783
      dyz     :     0.016083
      dx2y2   :     0.016654
      dxy     :     0.010919
  2 H s       :     0.724588  s :     0.724588
  3 F s       :     3.966850  s :     3.966850
      pz      :     1.948968  p :     5.450862
      px      :     1.875272
      py      :     1.626623
      dz2     :     0.000643  d :     0.004087
      dxz     :     0.000152
      dyz     :     0.000645
      dx2y2   :     0.001138
      dxy     :     0.001509
  4 Cls       :     5.994059  s :     5.994059
      pz      :     3.996135  p :    11.982099
      px      :     3.994086
      py      :     3.991878
      dz2     :     0.000016  d :     0.000108
      dxz     :     0.000002
      dyz     :     0.000020
      dx2y2   :     0.000030
      dxy     :     0.000040
  5 H s       :     0.760451  s :     0.760451
  6 H s       :     0.815364  s :     0.815364
  7 H s       :     0.838314  s :     0.838314
  8 H s       :     0.822290  s :     0.822290


                     *******************************
                     * LOEWDIN POPULATION ANALYSIS *
                     *******************************

----------------------
LOEWDIN ATOMIC CHARGES
----------------------
   0 C :   -0.047528
   1 C :   -0.299876
   2 H :    0.128805
   3 F :   -0.194494
   4 Cl:   -0.947805
   5 H :    0.104372
   6 H :    0.087074
   7 H :    0.079304
   8 H :    0.090147

-------------------------------
LOEWDIN REDUCED ORBITAL CHARGES
-------------------------------
  0 C s       :     2.877442  s :     2.877442
      pz      :     1.121453  p :     2.934908
      px      :     1.025818
      py      :     0.787637
      dz2     :     0.037829  d :     0.235178
      dxz     :     0.023241
      dyz     :     0.050590
      dx2y2   :     0.062766
      dxy     :     0.060753
  1 C s       :     2.894487  s :     2.894487
      pz      :     1.092213  p :     3.298727
      px      :     1.086952
      py      :     1.119562
      dz2     :     0.020774  d :     0.106662
      dxz     :     0.020011
      dyz     :     0.020812
      dx2y2   :     0.027233
      dxy     :     0.017831
  2 H s       :     0.871195  s :     0.871195
  3 F s       :     3.738058  s :     3.738058
      pz      :     1.941791  p :     5.451292
      px      :     1.862342
      py      :     1.647159
      dz2     :     0.000797  d :     0.005144
      dxz     :     0.000176
      dyz     :     0.000847
      dx2y2   :     0.001443
      dxy     :     0.001881
  4 Cls       :     5.986247  s :     5.986247
      pz      :     3.996084  p :    11.961472
      px      :     3.991493
      py      :     3.973895
      dz2     :     0.000011  d :     0.000087
      dxz     :     0.000002
      dyz     :     0.000018
      dx2y2   :     0.000018
      dxy     :     0.000038
  5 H s       :     0.895628  s :     0.895628
  6 H s       :     0.912926  s :     0.912926
  7 H s       :     0.920696  s :     0.920696
  8 H s       :     0.909853  s :     0.909853


                      *****************************
                      * MAYER POPULATION ANALYSIS *
                      *****************************

  NA   - Mulliken gross atomic population
  ZA   - Total nuclear charge
  QA   - Mulliken gross atomic charge
  VA   - Mayer's total valence
  BVA  - Mayer's bonded valence
  FA   - Mayer's free valence

  ATOM       NA         ZA         QA         VA         BVA        FA
  0 C      5.9974     6.0000     0.0026     3.5721     3.5721     0.0000
  1 C      6.6435     6.0000    -0.6435     3.7416     3.7416     0.0000
  2 H      0.7246     1.0000     0.2754     0.8954     0.8954    -0.0000
  3 F      9.4218     9.0000    -0.4218     0.7808     0.7808     0.0000
  4 Cl    17.9763    17.0000    -0.9763     0.0321     0.0321    -0.0000
  5 H      0.7605     1.0000     0.2395     0.9115     0.9115    -0.0000
  6 H      0.8154     1.0000     0.1846     0.9237     0.9237    -0.0000
  7 H      0.8383     1.0000     0.1617     0.9230     0.9230     0.0000
  8 H      0.8223     1.0000     0.1777     0.9225     0.9225     0.0000

  Mayer bond orders larger than 0.100000
B(  0-C ,  1-C ) :   0.9736 B(  0-C ,  3-F ) :   0.7650 B(  0-C ,  5-H ) :   0.9266 
B(  0-C ,  6-H ) :   0.9492 B(  1-C ,  2-H ) :   0.9057 B(  1-C ,  7-H ) :   0.9528 
B(  1-C ,  8-H ) :   0.9539 

-------
TIMINGS
-------

Total SCF time: 0 days 0 hours 0 min 2 sec 

Total time                  ....       2.049 sec
Sum of individual times     ....       1.848 sec  ( 90.2%)

Fock matrix formation       ....       1.809 sec  ( 88.3%)
Diagonalization             ....       0.002 sec  (  0.1%)
Density matrix formation    ....       0.000 sec  (  0.0%)
Population analysis         ....       0.028 sec  (  1.4%)
Initial guess               ....       0.003 sec  (  0.1%)
Orbital Transformation      ....       0.000 sec  (  0.0%)
Orbital Orthonormalization  ....       0.001 sec  (  0.0%)
DIIS solution               ....       0.000 sec  (  0.0%)
SOSCF solution              ....       0.006 sec  (  0.3%)

Maximum memory used throughout the entire SCF-calculation: 231.6 MB

------------------------------------------------------------------------------
                                ORCA  MP2 
------------------------------------------------------------------------------


----------------------
RI-MP2 ENERGY+GRADIENT
----------------------
Dimension of the basis                    ...   95
Memory devoted to MP2                     ...  256 MB   
Data format for buffers                   ... DOUBLE
Compression type for matrix containers    ... UNCOMPRESSED
Overall scaling of the MP2 energy         ...   1.000e+00
Calculating two index integrals           ... done (    0.003 sec)
Cholesky decomposition of the V-matrix    ... done
Cholesky decomposition of V**-1           ... done (    0.062 sec)

-----------------
RI-TRANSFORMATION (AUX index driven)
-----------------

Dimension of the orbital-basis         ... 95
Dimension of the aux-basis             ... 644
Transformation of internal MOs         ...    0-  21
Transformation of internal/external MOs...    0-  21 to   22-  94
Number Format for Storage              ... Double (8 Byte)
Integral mode                          ... Direct

First Phase: integral generation and transformation of MO indices
  Aux angular momentum 0               ... done (    0.057 sec)
  Aux angular momentum 1               ... done (    0.046 sec)
  Aux angular momentum 2               ... done (    0.052 sec)
  Aux angular momentum 3               ... done (    0.021 sec)
Closing buffer VIJ ( 0.00 GB; CompressionRatio= 0.99)
Closing buffer VIA ( 0.01 GB; CompressionRatio= 1.00)
  Phase 1 completed in     0.292 sec
Second Phase: sorting and transformation of aux index

IJ-Transformation
Memory available                       ... 209 MB 
Max. # MO pairs treated in a batch     ... 22    
# of internal orbitals                 ... 22
# batches for internal orbitals        ... 1
Closing buffer IJV ( 0.00 GB; CompressionRatio= 1.00)
(ij|v) transformation done in     0.065 sec

IA-Transformation
Memory available                       ... 209 MB 
Max. # MO pairs treated in a batch     ... 22    
# of internal orbitals                 ... 22
# batches for internal orbitals        ... 1
Closing buffer IAV ( 0.01 GB; CompressionRatio= 1.00)
(ia|v) transformation done in     0.173 sec

  Phase 2 completed in     0.249 sec
RI-Integral transformation completed in     0.553 sec
Opening buffers                              ... done

Starting loop over batches of integrals:

Operator 0  - window                       ... (  0- 21)x( 22- 94)
Operator 0  - Memory available             ...   256 MB
Operator 0  - Memory needed per MO         ...   0.7 MB
Operator 0  - Number of orbitals per batch ... 22
Operator 0  - Number of batches            ... 1

OPERATOR  0   PASS   0:  MOs     0 ...   21
  Reading integrals       ... ok
  Internal MO   2
  Internal MO   5
  Internal MO   8
  Internal MO  11
  Internal MO  14
  Internal MO  17
  Internal MO  20
Time spent in pair loops =     2.259 sec

-----------------------------------------------
 RI-MP2 CORRELATION ENERGY:     -0.723626355 Eh
-----------------------------------------------


---------------------
MP2 DENSITY FORMATION
---------------------

Completing the external part of the density      ... done
Storing the unrelaxed density                    ... done

Calculating G(D)                                 ... done
Completing the Lagrangian                        ... done
Solving the Z-vector equations                   ... 

------------------------------------------------------------------------------
                           ORCA CP-SCF CALCULATION
------------------------------------------------------------------------------

Input orbitals are from        ... orca.gbw
Input Perturbation             ... orca.pin.tmp
Wavefunction output            ... orca.pout.tmp
Perturbation mode              ... Real perturbation (singlet)
Solver                         ... POPLE
Max. number of iterations      ... 128
Convergence tolerance          ... 1.000e-04
Integral handling              ... Direct
Number of perturbations        ... 1
Number of operators            ... 1
Orbital ranges used for CP-SCF:
 Operator 0:  Orbitals   0... 21  to  22... 94
Variables per perturbation     ... 1606
Memory available               ... 971.0 MB
Memory needed per perturbation ...   3.4 MB
Perturbations treated per batch... 1
Number of batches              ... 1
     CP-SCF ITERATION   0:   4.8734e-02 (   0.4 sec)
     CP-SCF ITERATION   1:   8.9931e-03 (   0.4 sec)
     CP-SCF ITERATION   2:   3.7363e-03 (   0.4 sec)
     CP-SCF ITERATION   3:   7.2119e-04 (   0.4 sec)
     CP-SCF ITERATION   4:   1.5501e-04 (   0.4 sec)
     CP-SCF ITERATION   5:   4.4623e-05 (   0.4 sec)
                    *** THE CP-SCF HAS CONVERGED ***
done
Finalizing the relaxed density                   ... done
Transforming P to the AO basis                   ... done
Storing the relaxed density                      ... done

------------------------------------
ENERGY WEIGHTED DENSITY FINALIZATION
------------------------------------

Gathering the parts of the W-matrix              ... done
Forming the Z-density                            ... done
Transforming Z to the AO basis                   ... done
Calculating G(Z)                                 ... done
Finalizing the W-matrix                          ... done
Transforming W to the AO basis and storing       ... done

----------------------------------
MP2 DERIVATIVE INTEGRAL GENERATION
----------------------------------


Input Correlated Electron Density   ... orca.pmp2re
Input Energy Weighted Density       ... orca.wmp2.tmp
Input SCF Electron Density          ... orca.scfp

One-Electron Terms    ...
                        ... One-Electron Terms done
Prescreening matrices              ... done

                *********************************************
                * UNRELAXED MP2 DENSITY POPULATION ANALYSIS *
                *********************************************

------------------------------------------------------------------------------
                           ORCA POPULATION ANALYSIS
------------------------------------------------------------------------------
Input electron density              ... orca.pmp2ur
BaseName (.gbw .S,...)              ... orca

                    ********************************
                    * MULLIKEN POPULATION ANALYSIS *
                    ********************************

-----------------------
MULLIKEN ATOMIC CHARGES
-----------------------
   0 C :   -0.014292
   1 C :   -0.651209
   2 H :    0.276588
   3 F :   -0.409299
   4 Cl:   -0.974299
   5 H :    0.240909
   6 H :    0.186795
   7 H :    0.164391
   8 H :    0.180415
Sum of atomic charges:   -1.0000000

--------------------------------
MULLIKEN REDUCED ORBITAL CHARGES
--------------------------------
  0 C s       :     3.195421  s :     3.195421
      pz      :     1.140502  p :     2.678727
      px      :     0.890784
      py      :     0.647442
      dz2     :     0.024835  d :     0.140143
      dxz     :     0.017645
      dyz     :     0.031879
      dx2y2   :     0.032754
      dxy     :     0.033029
  1 C s       :     3.357748  s :     3.357748
      pz      :     1.087421  p :     3.204232
      px      :     0.977974
      py      :     1.138837
      dz2     :     0.018745  d :     0.089229
      dxz     :     0.015023
      dyz     :     0.019918
      dx2y2   :     0.020285
      dxy     :     0.015258
  2 H s       :     0.723412  s :     0.723412
  3 F s       :     3.964955  s :     3.964955
      pz      :     1.942062  p :     5.426012
      px      :     1.867496
      py      :     1.616454
      dz2     :     0.003463  d :     0.018332
      dxz     :     0.003010
      dyz     :     0.003528
      dx2y2   :     0.004000
      dxy     :     0.004330
  4 Cls       :     5.987290  s :     5.987290
      pz      :     3.982321  p :    11.939628
      px      :     3.980097
      py      :     3.977210
      dz2     :     0.009430  d :     0.047380
      dxz     :     0.009394
      dyz     :     0.009494
      dx2y2   :     0.009530
      dxy     :     0.009533
  5 H s       :     0.759091  s :     0.759091
  6 H s       :     0.813205  s :     0.813205
  7 H s       :     0.835609  s :     0.835609
  8 H s       :     0.819585  s :     0.819585


                     *******************************
                     * LOEWDIN POPULATION ANALYSIS *
                     *******************************

----------------------
LOEWDIN ATOMIC CHARGES
----------------------
   0 C :   -0.066152
   1 C :   -0.312207
   2 H :    0.131802
   3 F :   -0.182678
   4 Cl:   -0.945572
   5 H :    0.107238
   6 H :    0.090408
   7 H :    0.083151
   8 H :    0.094010

-------------------------------
LOEWDIN REDUCED ORBITAL CHARGES
-------------------------------
  0 C s       :     2.878407  s :     2.878407
      pz      :     1.119336  p :     2.934841
      px      :     1.022467
      py      :     0.793039
      dz2     :     0.041570  d :     0.252904
      dxz     :     0.027365
      dyz     :     0.054121
      dx2y2   :     0.066080
      dxy     :     0.063768
  1 C s       :     2.895156  s :     2.895156
      pz      :     1.089970  p :     3.287985
      px      :     1.081484
      py      :     1.116532
      dz2     :     0.025256  d :     0.129066
      dxz     :     0.024362
      dyz     :     0.025204
      dx2y2   :     0.031835
      dxy     :     0.022408
  2 H s       :     0.868198  s :     0.868198
  3 F s       :     3.736051  s :     3.736051
      pz      :     1.934844  p :     5.426850
      px      :     1.854470
      py      :     1.637536
      dz2     :     0.003701  d :     0.019776
      dxz     :     0.003042
      dyz     :     0.003754
      dx2y2   :     0.004406
      dxy     :     0.004873
  4 Cls       :     5.979342  s :     5.979342
      pz      :     3.982252  p :    11.918758
      px      :     3.977439
      py      :     3.959067
      dz2     :     0.009440  d :     0.047472
      dxz     :     0.009399
      dyz     :     0.009512
      dx2y2   :     0.009544
      dxy     :     0.009577
  5 H s       :     0.892762  s :     0.892762
  6 H s       :     0.909592  s :     0.909592
  7 H s       :     0.916849  s :     0.916849
  8 H s       :     0.905990  s :     0.905990


                      *****************************
                      * MAYER POPULATION ANALYSIS *
                      *****************************

  NA   - Mulliken gross atomic population
  ZA   - Total nuclear charge
  QA   - Mulliken gross atomic charge
  VA   - Mayer's total valence
  BVA  - Mayer's bonded valence
  FA   - Mayer's free valence

  ATOM       NA         ZA         QA         VA         BVA        FA
  0 C      6.0143     6.0000    -0.0143     3.6706     3.4129     0.2576
  1 C      6.6512     6.0000    -0.6512     3.8572     3.5867     0.2705
  2 H      0.7234     1.0000     0.2766     0.8972     0.8609     0.0363
  3 F      9.4093     9.0000    -0.4093     1.0527     0.7357     0.3171
  4 Cl    17.9743    17.0000    -0.9743     0.4187     0.0313     0.3874
  5 H      0.7591     1.0000     0.2409     0.9131     0.8779     0.0352
  6 H      0.8132     1.0000     0.1868     0.9254     0.8888     0.0366
  7 H      0.8356     1.0000     0.1644     0.9255     0.8864     0.0391
  8 H      0.8196     1.0000     0.1804     0.9245     0.8866     0.0380

  Mayer bond orders larger than 0.100000
B(  0-C ,  1-C ) :   0.9245 B(  0-C ,  3-F ) :   0.7223 B(  0-C ,  5-H ) :   0.8938 
B(  0-C ,  6-H ) :   0.9149 B(  1-C ,  2-H ) :   0.8721 B(  1-C ,  7-H ) :   0.9166 
B(  1-C ,  8-H ) :   0.9182 


                *******************************************
                * RELAXED MP2 DENSITY POPULATION ANALYSIS *
                *******************************************

------------------------------------------------------------------------------
                           ORCA POPULATION ANALYSIS
------------------------------------------------------------------------------
Input electron density              ... orca.pmp2re
BaseName (.gbw .S,...)              ... orca

                    ********************************
                    * MULLIKEN POPULATION ANALYSIS *
                    ********************************

-----------------------
MULLIKEN ATOMIC CHARGES
-----------------------
   0 C :   -0.077656
   1 C :   -0.687202
   2 H :    0.279341
   3 F :   -0.344370
   4 Cl:   -0.960573
   5 H :    0.239018
   6 H :    0.188314
   7 H :    0.173109
   8 H :    0.190019
Sum of atomic charges:   -1.0000000

--------------------------------
MULLIKEN REDUCED ORBITAL CHARGES
--------------------------------
  0 C s       :     3.201575  s :     3.201575
      pz      :     1.159130  p :     2.747288
      px      :     0.906501
      py      :     0.681656
      dz2     :     0.021599  d :     0.128793
      dxz     :     0.017259
      dyz     :     0.029282
      dx2y2   :     0.029949
      dxy     :     0.030704
  1 C s       :     3.345569  s :     3.345569
      pz      :     1.106630  p :     3.263926
      px      :     0.999995
      py      :     1.157301
      dz2     :     0.015748  d :     0.077708
      dxz     :     0.014282
      dyz     :     0.016971
      dx2y2   :     0.016786
      dxy     :     0.013921
  2 H s       :     0.720659  s :     0.720659
  3 F s       :     3.955514  s :     3.955514
      pz      :     1.929638  p :     5.370646
      px      :     1.851864
      py      :     1.589144
      dz2     :     0.003415  d :     0.018210
      dxz     :     0.003017
      dyz     :     0.003560
      dx2y2   :     0.003977
      dxy     :     0.004241
  4 Cls       :     5.986050  s :     5.986050
      pz      :     3.980290  p :    11.927133
      px      :     3.976726
      py      :     3.970117
      dz2     :     0.009432  d :     0.047390
      dxz     :     0.009395
      dyz     :     0.009494
      dx2y2   :     0.009533
      dxy     :     0.009537
  5 H s       :     0.760982  s :     0.760982
  6 H s       :     0.811686  s :     0.811686
  7 H s       :     0.826891  s :     0.826891
  8 H s       :     0.809981  s :     0.809981


                     *******************************
                     * LOEWDIN POPULATION ANALYSIS *
                     *******************************

----------------------
LOEWDIN ATOMIC CHARGES
----------------------
   0 C :   -0.105159
   1 C :   -0.347904
   2 H :    0.139479
   3 F :   -0.146267
   4 Cl:   -0.937933
   5 H :    0.109242
   6 H :    0.093842
   7 H :    0.091881
   8 H :    0.102820

-------------------------------
LOEWDIN REDUCED ORBITAL CHARGES
-------------------------------
  0 C s       :     2.883240  s :     2.883240
      pz      :     1.131649  p :     2.977978
      px      :     1.029867
      py      :     0.816462
      dz2     :     0.038393  d :     0.243942
      dxz     :     0.027091
      dyz     :     0.052776
      dx2y2   :     0.064451
      dxy     :     0.061231
  1 C s       :     2.898345  s :     2.898345
      pz      :     1.105878  p :     3.331557
      px      :     1.094539
      py      :     1.131140
      dz2     :     0.022389  d :     0.118002
      dxz     :     0.023753
      dyz     :     0.022428
      dx2y2   :     0.028253
      dxy     :     0.021179
  2 H s       :     0.860521  s :     0.860521
  3 F s       :     3.734788  s :     3.734788
      pz      :     1.928407  p :     5.391634
      px      :     1.843920
      py      :     1.619307
      dz2     :     0.003694  d :     0.019845
      dxz     :     0.003053
      dyz     :     0.003798
      dx2y2   :     0.004429
      dxy     :     0.004870
  4 Cls       :     5.979011  s :     5.979011
      pz      :     3.981231  p :    11.911438
      px      :     3.975589
      py      :     3.954618
      dz2     :     0.009442  d :     0.047485
      dxz     :     0.009400
      dyz     :     0.009512
      dx2y2   :     0.009548
      dxy     :     0.009583
  5 H s       :     0.890758  s :     0.890758
  6 H s       :     0.906158  s :     0.906158
  7 H s       :     0.908119  s :     0.908119
  8 H s       :     0.897180  s :     0.897180


                      *****************************
                      * MAYER POPULATION ANALYSIS *
                      *****************************

  NA   - Mulliken gross atomic population
  ZA   - Total nuclear charge
  QA   - Mulliken gross atomic charge
  VA   - Mayer's total valence
  BVA  - Mayer's bonded valence
  FA   - Mayer's free valence

  ATOM       NA         ZA         QA         VA         BVA        FA
  0 C      6.0777     6.0000    -0.0777     3.7523     3.4994     0.2529
  1 C      6.6872     6.0000    -0.6872     3.8565     3.5890     0.2675
  2 H      0.7207     1.0000     0.2793     0.9029     0.8676     0.0352
  3 F      9.3444     9.0000    -0.3444     1.1482     0.8361     0.3122
  4 Cl    17.9606    17.0000    -0.9606     0.4438     0.0584     0.3853
  5 H      0.7610     1.0000     0.2390     0.9170     0.8824     0.0346
  6 H      0.8117     1.0000     0.1883     0.9245     0.8885     0.0361
  7 H      0.8269     1.0000     0.1731     0.9246     0.8864     0.0382
  8 H      0.8100     1.0000     0.1900     0.9221     0.8849     0.0372

  Mayer bond orders larger than 0.100000
B(  0-C ,  1-C ) :   0.9409 B(  0-C ,  3-F ) :   0.8032 B(  0-C ,  5-H ) :   0.8843 
B(  0-C ,  6-H ) :   0.9064 B(  1-C ,  2-H ) :   0.8624 B(  1-C ,  7-H ) :   0.9116 
B(  1-C ,  8-H ) :   0.9137 


-------
TIMINGS
-------

Total time                :    8.673 sec
Integral trafo            :    0.558 sec (  6.4%)
I/O of integrals          :    0.003 sec (  0.0%)
K(i,j) Operators          :    0.352 sec (  4.1%)
T(i,j) pair energies      :    0.013 sec (  0.1%)
V-calculation             :    0.003 sec (  0.0%)
V**(-1/2)                 :    0.062 sec (  0.7%)
Gamma(ia|P)               :    0.329 sec (  3.8%)
Gamma-Trafo               :    0.302 sec (  3.5%)
D(virtual)                :    0.040 sec (  0.5%)
D(internal)               :    0.018 sec (  0.2%)
W(virtual)                :    0.079 sec (  0.9%)
W(internal)               :    0.078 sec (  0.9%)
L(virtual)                :    0.398 sec (  4.6%)
L(internal)               :    0.021 sec (  0.2%)
G(D)                      :    0.539 sec (  6.2%)
G(Z)                      :    0.553 sec (  6.4%)
Z-Vector Solution         :    2.707 sec ( 31.2%)
3-Index Derivative        :    0.604 sec (  7.0%)
2-Index Derivative        :    0.063 sec (  0.7%)
Separable Gradient        :    1.758 sec ( 20.3%)


---------------------------------------
MP2 TOTAL ENERGY:     -638.420698304 Eh
---------------------------------------

The final MP2 gradient
  0:   0.00045603  -0.00018148   0.00006880
  1:  -0.00015307  -0.00013286  -0.00003345
  2:  -0.00000074   0.00050673   0.00082342
  3:  -0.00000522  -0.00042301   0.00043005
  4:  -0.00020599   0.00072102  -0.00033435
  5:  -0.00007825   0.00036725   0.00017949
  6:   0.00009634  -0.00027033  -0.00044816
  7:  -0.00026000   0.00025473  -0.00081235
  8:   0.00015089  -0.00084205   0.00012655

-----------------------------------
NORM OF THE MP2 GRADIENT:  0.002063
-----------------------------------

Maximum memory used throughout the entire MP2-calculation: 119.5 MB

-------------------------   --------------------
FINAL SINGLE POINT ENERGY      -638.420698303808
-------------------------   --------------------


                            ***************************************
                            *     ORCA property calculations      *
                            ***************************************

                                    ---------------------
                                    Active property flags
                                    ---------------------
   (+) Dipole Moment


------------------------------------------------------------------------------
                       ORCA ELECTRIC PROPERTIES CALCULATION
------------------------------------------------------------------------------

Dipole Moment Calculation                       ... on
Quadrupole Moment Calculation                   ... off
Polarizability Calculation                      ... off
GBWName                                         ... orca.gbw
Electron density                                ... orca.scfp
The origin for moment calculation is the CENTER OF MASS  = ( 1.025618, -2.137679 -0.293941)

-------------
DIPOLE MOMENT
-------------
                                X             Y             Z
Electronic contribution:     -3.22026      -2.60995      -0.86097
Nuclear contribution   :      3.11699       5.54771       1.27815
                        -----------------------------------------
Total Dipole Moment    :     -0.10327       2.93776       0.41718
                        -----------------------------------------
Magnitude (a.u.)       :      2.96903
Magnitude (Debye)      :      7.54667



--------------------
Rotational spectrum 
--------------------
 
Rotational constants in cm-1:     0.413031     0.050162     0.045600 
Rotational constants in MHz : 12382.360259  1503.824773  1367.065102 

 Dipole components along the rotational axes: 
x,y,z [a.u.] :    -2.924224     0.493855    -0.141961 
x,y,z [Debye]:    -7.432788     1.255279    -0.360837 

 

                         *** MP2 UNRELAXED DENSITY ***

------------------------------------------------------------------------------
                       ORCA ELECTRIC PROPERTIES CALCULATION
------------------------------------------------------------------------------

Dipole Moment Calculation                       ... on
Quadrupole Moment Calculation                   ... off
Polarizability Calculation                      ... off
GBWName                                         ... orca.gbw
Electron density                                ... orca.pmp2ur
The origin for moment calculation is the CENTER OF MASS  = ( 1.025618, -2.137679 -0.293941)

-------------
DIPOLE MOMENT
-------------
                                X             Y             Z
Electronic contribution:     -3.23154      -2.59621      -0.86446
Nuclear contribution   :      3.11699       5.54771       1.27815
                        -----------------------------------------
Total Dipole Moment    :     -0.11455       2.95150       0.41369
                        -----------------------------------------
Magnitude (a.u.)       :      2.98255
Magnitude (Debye)      :      7.58103



--------------------
Rotational spectrum 
--------------------
 
Rotational constants in cm-1:     0.413031     0.050162     0.045600 
Rotational constants in MHz : 12382.360259  1503.824773  1367.065102 

 Dipole components along the rotational axes: 
x,y,z [a.u.] :    -2.939594     0.485074    -0.138117 
x,y,z [Debye]:    -7.471854     1.232959    -0.351066 

 

                           *** MP2 RELAXED DENSITY ***

------------------------------------------------------------------------------
                       ORCA ELECTRIC PROPERTIES CALCULATION
------------------------------------------------------------------------------

Dipole Moment Calculation                       ... on
Quadrupole Moment Calculation                   ... off
Polarizability Calculation                      ... off
GBWName                                         ... orca.gbw
Electron density                                ... orca.pmp2re
The origin for moment calculation is the CENTER OF MASS  = ( 1.025618, -2.137679 -0.293941)

-------------
DIPOLE MOMENT
-------------
                                X             Y             Z
Electronic contribution:     -3.27795      -2.57791      -0.88024
Nuclear contribution   :      3.11699       5.54771       1.27815
                        -----------------------------------------
Total Dipole Moment    :     -0.16096       2.96980       0.39791
                        -----------------------------------------
Magnitude (a.u.)       :      3.00065
Magnitude (Debye)      :      7.62706



--------------------
Rotational spectrum 
--------------------
 
Rotational constants in cm-1:     0.413031     0.050162     0.045600 
Rotational constants in MHz : 12382.360259  1503.824773  1367.065102 

 Dipole components along the rotational axes: 
x,y,z [a.u.] :    -2.965365     0.441613    -0.124531 
x,y,z [Debye]:    -7.537360     1.122491    -0.316532 

 

Timings for individual modules:

Sum of individual times         ...       11.142 sec (=   0.186 min)
GTO integral calculation        ...        0.213 sec (=   0.004 min)   1.9 %
SCF iterations                  ...        2.073 sec (=   0.035 min)  18.6 %
MP2 module                      ...        8.856 sec (=   0.148 min)  79.5 %
                             ****ORCA TERMINATED NORMALLY****
TOTAL RUN TIME: 0 days 0 hours 0 minutes 11 seconds 447 msec
