21
Lattice="1.0 0.0 0.0 0.0 1.0 0.0 0.0 0.0 1.0" Properties=species:S:1:pos:R:3:mp2_forces:R:3:forces:R:3 mp2_energy=-25674.000007328526 energy=-25674.00000887593 free_energy=-25674.00000887593 pbc="F F F"
C        0.16449841      -0.22688921      -0.00019392       0.00179670      -0.00472701      -0.00514561       0.00177141      -0.00466653      -0.00515134
C        1.63540084       0.07834407       0.03041571      -0.00071611       0.00362312      -0.00222302      -0.00070580       0.00362097      -0.00222587
H        2.15938099      -0.83584724       0.30815559       0.00512688       0.00199511      -0.01552687       0.00513300       0.00198689      -0.01552557
F       -0.55437544       0.98518397      -0.28480843      -0.00397869      -0.00925828      -0.01024308      -0.00396999      -0.00928353      -0.01023889
Cl       0.88110393      -3.40190001       0.06022632       0.00298484      -0.00766617       0.02059944       0.00298302      -0.00766322       0.02059906
H       -0.10155779      -0.93710681      -0.77480791       0.00803290      -0.00749969      -0.00401939       0.00803442      -0.00751329      -0.00402454
H       -0.20771098      -0.58497555       0.95679826       0.00145626      -0.00419903      -0.00579868       0.00145788      -0.00420912      -0.00579310
H        1.85544460       0.86509803       0.75546666      -0.00291460      -0.00524500       0.00938074      -0.00291592      -0.00524533       0.00938272
H        1.98705563       0.39711819      -0.95255796      -0.00325344       0.02050280       0.00135213      -0.00325514       0.02050384       0.00135400
O       -3.16145780       2.09100262       0.21866238       0.02399269       0.04043953       0.00634996       0.02398902       0.04045476       0.00635658
H       -2.92417924       2.81515577      -0.35891826       0.02804130       0.01289482      -0.02455721       0.02804823       0.01287895      -0.02456182
H       -2.46067368       1.44501356       0.11382667       0.00926742       0.02199606       0.01706808       0.00926455       0.02199541       0.01706540
O        0.42529097       3.67715624      -0.24151798      -0.04567360       0.00138712       0.00151126      -0.04567442       0.00140192       0.00151353
H        0.07011760       3.85317269       0.62870251      -0.00412335      -0.02950089       0.02361844      -0.00412384      -0.02951754       0.02361454
H        0.27826701       2.74147086      -0.39541869      -0.03099243       0.00143277      -0.01365771      -0.03099053       0.00143283      -0.01365632
O       -1.34618386      -5.74828085      -0.03440103      -0.00561724      -0.00305716      -0.00242599      -0.00561584      -0.00305274      -0.00242627
H       -0.57690107      -6.31651684      -0.03376764      -0.01401616      -0.01514238      -0.00023432      -0.01401706      -0.01513092      -0.00023471
H       -0.95378319      -4.86662220      -0.00781797       0.00594691      -0.00876027       0.00330977       0.00594475      -0.00877758       0.00331048
O        3.94866177      -4.38993112      -0.04717063       0.00617370       0.00085200      -0.00515627       0.00617242       0.00085537      -0.00515555
H        3.63384110      -5.29000368       0.02466798       0.01728449      -0.00249311       0.00543734       0.01727713      -0.00248414       0.00543558
H        3.13196650      -3.87289846      -0.04320572       0.00118151      -0.00757432       0.00036100       0.00119272      -0.00758699       0.00036207
21
Lattice="1.0 0.0 0.0 0.0 1.0 0.0 0.0 0.0 1.0" Properties=species:S:1:pos:R:3:mp2_forces:R:3:forces:R:3 mp2_energy=-25674.079265968438 energy=-25674.0674104813 free_energy=-25674.0674104813 stress="1.2952610195630996e-08 1.5922259949594663e-08 3.310305552972304e-09 1.5922259949594663e-08 -3.0588126059028736e-08 4.478485951912806e-09 3.310305552972304e-09 4.478485951912806e-09 -1.2200333197902633e-09" pbc="F F F"
C        0.10558895      -0.29995073      -0.02250062       0.02747040       0.05160175       0.02690991      -0.00169736      -0.00275624      -0.00416372
C        1.57051509       0.03755442       0.00864165      -0.01155367      -0.00817281      -0.00326414      -0.00286447       0.00158405      -0.00219552
H        2.10421620      -0.82628097       0.40305980       0.01554875      -0.00249061      -0.01481894       0.00053946      -0.00202266      -0.01495248
F       -0.63065780       0.87599111      -0.39925703       0.01297901      -0.06805805      -0.03631089      -0.00347094      -0.00360622      -0.00348748
Cl       0.97049388      -3.44552969       0.18165259      -0.00886454      -0.02345595       0.02738389       0.00381210      -0.00402913       0.02596093
H       -0.13246841      -1.06785057      -0.74951368      -0.00832497      -0.00592396       0.00251356       0.00137720      -0.00264118      -0.00538480
H       -0.27431600      -0.59570694       0.95364516       0.00772500      -0.00807681      -0.02690908      -0.00177509      -0.00542789      -0.00497984
H        1.75447426       0.91022424       0.64033087       0.00119833      -0.02923865       0.01434307      -0.00460455      -0.00664494       0.00957313
H        1.94427862       0.24289538      -0.99584455      -0.00900086       0.04024702      -0.00285468      -0.00556657       0.01771359       0.00008755
O       -2.94141338       2.40219740       0.26158877       0.00726792       0.04256216       0.02838004       0.02135615       0.02091350       0.00940899
H       -2.54982251       3.01308877      -0.36204716       0.06883748       0.04735973       0.01363326       0.01609022       0.01409865      -0.00035821
H       -2.40915367       1.60821079       0.19469117       0.00532842       0.01617210      -0.02333309       0.00772530       0.01250808      -0.00066095
O        0.16894588       3.61235101      -0.21685398      -0.07632788      -0.01095486       0.00617470      -0.00447253      -0.00481570       0.00399226
H       -0.06378644       3.63938841       0.71077106      -0.05525618       0.01770554       0.01951637      -0.03732443      -0.01142078      -0.00375643
H        0.09731735       2.68790992      -0.46260676       0.00775223      -0.04252983      -0.02968893      -0.00222489      -0.00283571      -0.00479045
O       -1.36202155      -5.69411561      -0.09336007      -0.00339806      -0.00205233      -0.00286391      -0.00266402       0.00396298      -0.00432764
H       -0.61227156      -6.28754167      -0.06967502      -0.01447606      -0.01316975       0.00045547      -0.01970880      -0.01760111      -0.00187992
H       -0.94305567      -4.82784367      -0.02166905       0.01683920      -0.00180756       0.00241558       0.01897743      -0.00662832       0.00379871
O        4.06255698      -4.35400108      -0.05236026       0.00226164      -0.00428285      -0.00152461       0.00481232       0.00016905      -0.00543023
H        3.80461597      -5.27182509       0.02124071       0.00514805       0.00599843       0.00433230       0.00684049       0.00017928       0.00135762
H        3.22017010      -3.88142140      -0.00759764       0.00884577      -0.00143269      -0.00448989       0.00484298      -0.00069929       0.00218849
21
Lattice="1.0 0.0 0.0 0.0 1.0 0.0 0.0 0.0 1.0" Properties=species:S:1:pos:R:3:mp2_forces:R:3:forces:R:3 mp2_energy=-25674.078224753324 energy=-25674.066505690964 free_energy=-25674.066505690964 stress="1.268346803442794e-08 1.503054419125679e-08 2.9687634299958957e-09 1.503054419125679e-08 -3.15119602530708e-08 4.535994963699533e-09 2.9687634299958957e-09 4.535994963699533e-09 -1.176146185975729e-09" pbc="F F F"
C        0.10690565      -0.30001292      -0.02408446       0.02640242       0.05129339       0.02657757      -0.00176956      -0.00252779      -0.00408109
C        1.57139690       0.03917770       0.00966222      -0.01150447      -0.00982723      -0.00406312      -0.00291506       0.00164528      -0.00219493
H        2.10560216      -0.82484827       0.40305470       0.01545061      -0.00211031      -0.01473938       0.00050972      -0.00192795      -0.01527337
F       -0.63016642       0.87582459      -0.39953653       0.01321882      -0.06636317      -0.03556373      -0.00354065      -0.00339728      -0.00349797
Cl       0.96750515      -3.44573669       0.18058022      -0.00806024      -0.02217466       0.02740196       0.00384590      -0.00397294       0.02602529
H       -0.12928925      -1.06674806      -0.75293332      -0.00842670      -0.00554635       0.00259980       0.00123337      -0.00246144      -0.00518611
H       -0.27401475      -0.59827444       0.95088556       0.00805796      -0.00761068      -0.02701617      -0.00177125      -0.00511020      -0.00487461
H        1.75352505       0.91074845       0.64338629       0.00161971      -0.02958008       0.01495393      -0.00449005      -0.00697129       0.00959937
H        1.94624920       0.24716285      -0.99389207      -0.00933798       0.04002884      -0.00233622      -0.00588870       0.01794431       0.00036934
O       -2.94529724       2.39786874       0.26037047       0.00819371       0.04282348       0.02771062       0.02008133       0.01994904       0.00841298
H       -2.55251453       3.01204185      -0.35928570       0.06882606       0.04726778       0.01416017       0.01653562       0.01389135       0.00015023
H       -2.40965508       1.60611848       0.19412136       0.00423530       0.01523622      -0.02373186       0.00714500       0.01190546      -0.00100076
O        0.16902056       3.61270661      -0.21902036      -0.07537185      -0.01012412       0.00632715      -0.00417618      -0.00446269       0.00371901
H       -0.05340207       3.64222011       0.71103469      -0.05471684       0.01696555       0.01941728      -0.03476781      -0.01072324      -0.00299675
H        0.09603085       2.68755348      -0.46169771       0.00613861      -0.04291732      -0.03012672      -0.00313986      -0.00234272      -0.00491655
O       -1.36152993      -5.69822677      -0.09177330      -0.00345807      -0.00174258      -0.00282676      -0.00265896       0.00396666      -0.00432044
H       -0.60678086      -6.28532880      -0.06847333      -0.01506585      -0.01414916       0.00036394      -0.02004933      -0.01833128      -0.00190354
H       -0.94910898      -4.82884841      -0.02079120       0.01750899      -0.00191613       0.00249797       0.01947520      -0.00679360       0.00383678
O        4.05989508      -4.35314017      -0.05230932       0.00201227      -0.00419957      -0.00148588       0.00476513       0.00017639      -0.00543398
H        3.80275430      -5.27123389       0.02072395       0.00514994       0.00606351       0.00431711       0.00674996       0.00018186       0.00135018
H        3.21708049      -3.88128041      -0.00768622       0.00912762      -0.00141740      -0.00443764       0.00482618      -0.00063792       0.00221690
21
Lattice="1.0 0.0 0.0 0.0 1.0 0.0 0.0 0.0 1.0" Properties=species:S:1:pos:R:3:mp2_forces:R:3:forces:R:3 mp2_energy=-25674.074972435756 energy=-25674.064340712754 free_energy=-25674.064340712754 stress="1.2618646306525e-08 1.2637198443233342e-08 2.250598079344141e-09 1.2637198443233342e-08 -3.4209998817528843e-08 4.749831925873262e-09 2.250598079344141e-09 4.749831925873262e-09 -1.0604899270844396e-09" pbc="F F F"
C        0.10967046      -0.30010545      -0.02808328       0.02386618       0.05014115       0.02688150      -0.00207019      -0.00206546      -0.00372752
C        1.57343241       0.04176357       0.01170078      -0.01130350      -0.01348478      -0.00647533      -0.00318899       0.00191209      -0.00220755
H        2.10791738      -0.82229053       0.40477078       0.01513814      -0.00157390      -0.01478878       0.00035165      -0.00216917      -0.01633636
F       -0.62859344       0.87614096      -0.39993648       0.01364365      -0.06247894      -0.03445659      -0.00390430      -0.00314760      -0.00380060
Cl       0.96088954      -3.44529843       0.17885811      -0.00652921      -0.01967071       0.02762585       0.00389450      -0.00408619       0.02622827
H       -0.12289901      -1.06364233      -0.76144636      -0.00877046      -0.00489427       0.00308587       0.00091782      -0.00255110      -0.00425984
H       -0.27371068      -0.60422804       0.94405247       0.00878551      -0.00649745      -0.02678144      -0.00184067      -0.00407375      -0.00426057
H        1.75175948       0.91194609       0.64836074       0.00207533      -0.02991526       0.01679418      -0.00442416      -0.00730784       0.01031926
H        1.95151262       0.25327913      -0.98991563      -0.00972927       0.04083202      -0.00165648      -0.00669416       0.01922553       0.00033376
O       -2.95515787       2.38743969       0.25833302       0.01181409       0.04358630       0.02516020       0.01806510       0.01808855       0.00562406
H       -2.56258691       3.00816782      -0.35492659       0.06780256       0.04678455       0.01604306       0.01945768       0.01348469       0.00198917
H       -2.41044767       1.60173360       0.19431496       0.00176358       0.01256969      -0.02449275       0.00526847       0.01004122      -0.00201140
O        0.17098906       3.61363739      -0.22310128      -0.07196938      -0.00779141       0.00667774      -0.00541281      -0.00316937       0.00328220
H       -0.02907149       3.64941754       0.71175951      -0.05382945       0.01447186       0.01820044      -0.02887377      -0.00961054      -0.00202717
H        0.09438052       2.68691228      -0.45862490       0.00191824      -0.04290371      -0.03027183      -0.00478194      -0.00105858      -0.00483480
O       -1.35960765      -5.70575405      -0.08860779      -0.00372434      -0.00142511      -0.00278074      -0.00287022       0.00359469      -0.00434773
H       -0.59469825      -6.27964769      -0.06573401      -0.01645929      -0.01600781       0.00017762      -0.02084067      -0.01963835      -0.00195203
H       -0.96082013      -4.83008988      -0.01899652       0.01845922      -0.00264492       0.00259856       0.02006841      -0.00744968       0.00388477
O        4.05320383      -4.35060812      -0.05235476       0.00161129      -0.00429249      -0.00137895       0.00507696      -0.00003570      -0.00545568
H        3.79919039      -5.26964797       0.01965557       0.00494366       0.00623532       0.00430361       0.00625379       0.00023359       0.00135258
H        3.20885369      -3.88138158      -0.00774240       0.01049344      -0.00104014      -0.00446575       0.00554749      -0.00021701       0.00220721
21
Lattice="1.0 0.0 0.0 0.0 1.0 0.0 0.0 0.0 1.0" Properties=species:S:1:pos:R:3:mp2_forces:R:3:forces:R:3 mp2_energy=-25674.08383732134 energy=-25674.069480448015 free_energy=-25674.069480448015 stress="1.3089625593485201e-08 1.9114273292682222e-08 4.052311089870682e-09 1.9114273292682222e-08 -2.801848245653014e-08 4.124705427691842e-09 4.052311089870682e-09 4.124705427691842e-09 -1.2468719203293667e-09" pbc="F F F"
C        0.10405472      -0.30036241      -0.01759091       0.03037553       0.05392367       0.02310683      -0.00137532      -0.00293767      -0.00509551
C        1.56865005       0.03871481       0.00838896      -0.01209954      -0.00542430       0.00060972      -0.00236748       0.00098771      -0.00218966
H        2.10504202      -0.82545958       0.39836339       0.01530317      -0.00352363      -0.01417557       0.00028133      -0.00202674      -0.01301634
F       -0.63360071       0.87308145      -0.39923674       0.01180837      -0.07173238      -0.03619211      -0.00280607      -0.00308059      -0.00294183
Cl       0.97544845      -3.44873790       0.17764963      -0.00995199      -0.02463867       0.02664645       0.00306144      -0.00307443       0.02568182
H       -0.13492901      -1.07232940      -0.73993860      -0.00725105      -0.00670677       0.00149268       0.00178435      -0.00187011      -0.00745036
H       -0.27336648      -0.59095414       0.96114427       0.00676141      -0.00846615      -0.02793780      -0.00171728      -0.00696469      -0.00635480
H        1.75422526       0.91008056       0.64143123       0.00151871      -0.02914274       0.01249882      -0.00454407      -0.00632253       0.00816191
H        1.93770872       0.24726219      -0.99718056      -0.00896101       0.03636166      -0.00381290      -0.00397830       0.01510310       0.00031569
O       -2.92886509       2.41297633       0.26236297       0.00100711       0.04092656       0.03235647       0.02295000       0.02247703       0.01331432
H       -2.53088528       3.02183283      -0.35916159       0.07112287       0.04708389       0.01013338       0.00939083       0.01389133      -0.00390043
H       -2.40897674       1.61136549       0.18883750       0.00685992       0.02181449      -0.02177585       0.01003448       0.01534567       0.00148027
O        0.16321493       3.60926537      -0.21558621      -0.08489023      -0.01230952       0.00628698      -0.00224880      -0.00636479       0.00531668
H       -0.08609644       3.62940649       0.70797585      -0.05374028       0.02007810       0.02063212      -0.04262566      -0.01194245      -0.00562293
H        0.09345422       2.68668869      -0.46876087       0.01586844      -0.04393829      -0.02884747       0.00060878      -0.00415239      -0.00391141
O       -1.36516085      -5.69542635      -0.09405378      -0.00293583      -0.00144786      -0.00280844      -0.00178071       0.00516592      -0.00416803
H       -0.61498554      -6.28838284      -0.07186285      -0.01410698      -0.01249810       0.00048446      -0.01938150      -0.01736332      -0.00182357
H       -0.94665876      -4.82898129      -0.02294774       0.01919412      -0.00012982       0.00272364       0.02093942      -0.00580815       0.00388156
O        4.06992625      -4.35787695      -0.05100141       0.00187019      -0.00349020      -0.00164717       0.00345732       0.00087116      -0.00533970
H        3.80568637      -5.27401139       0.02155261       0.00588478       0.00605021       0.00424523       0.00806106       0.00007380       0.00127284
H        3.23032020      -3.88040793      -0.00804921       0.00636229      -0.00279014      -0.00401948       0.00225618      -0.00200786       0.00238946
21
Lattice="1.0 0.0 0.0 0.0 1.0 0.0 0.0 0.0 1.0" Properties=species:S:1:pos:R:3:mp2_forces:R:3:forces:R:3 mp2_energy=-25674.08317591048 energy=-25674.068439896062 free_energy=-25674.068439896062 stress="1.2755799177552427e-08 1.865159730611385e-08 3.821594811443679e-09 1.865159730611385e-08 -2.9503387141836108e-08 4.11839982401225e-09 3.821594811443679e-09 4.11839982401225e-09 -1.282678455052898e-09" pbc="F F F"
C        0.10487961      -0.30055036      -0.01824627       0.03013767       0.05359719       0.02171069      -0.00146911      -0.00267241      -0.00518826
C        1.56896404       0.04062811       0.00952666      -0.01241637      -0.00661744       0.00046881      -0.00238609       0.00101521      -0.00219548
H        2.10644086      -0.82370418       0.39772162       0.01493183      -0.00332126      -0.01399621       0.00012116      -0.00200854      -0.01299077
F       -0.63393391       0.87237338      -0.39921152       0.01155548      -0.07005825      -0.03518844      -0.00281893      -0.00268419      -0.00300244
Cl       0.97317453      -3.44919337       0.17433314      -0.00970037      -0.02370159       0.02658778       0.00278887      -0.00316091       0.02575603
H       -0.13232774      -1.07188451      -0.74183571      -0.00704770      -0.00667679       0.00146792       0.00166072      -0.00161438      -0.00759214
H       -0.27314226      -0.59302962       0.95968744       0.00684676      -0.00787752      -0.02808633      -0.00177289      -0.00673439      -0.00641383
H        1.75285755       0.91071082       0.64480978       0.00214743      -0.02943549       0.01291817      -0.00444213      -0.00638227       0.00806079
H        1.93829246       0.25239145      -0.99528283      -0.00913723       0.03560406      -0.00359358      -0.00395652       0.01502912       0.00042870
O       -2.93161452       2.41020643       0.26060017       0.00102936       0.04127929       0.03238106       0.02177563       0.02177347       0.01288662
H       -2.53038047       3.02289391      -0.35503443       0.07148126       0.04686757       0.00998217       0.00854039       0.01350165      -0.00401519
H       -2.40980775       1.60989056       0.18672846       0.00584657       0.02136672      -0.02203564       0.00980297       0.01508101       0.00149832
O        0.16304693       3.60849860      -0.21786374      -0.08584979      -0.01143277       0.00674144      -0.00165627      -0.00597835       0.00518168
H       -0.07711629       3.63008744       0.70807589      -0.05256418       0.01997016       0.02086799      -0.04043184      -0.01123418      -0.00496195
H        0.09125490       2.68553642      -0.46907583       0.01578841      -0.04481078      -0.02946121       0.00031809      -0.00369598      -0.00379849
O       -1.36427004      -5.70129990      -0.09200462      -0.00299578      -0.00084722      -0.00275883      -0.00162271       0.00536411      -0.00413866
H       -0.60582742      -6.28374523      -0.07091315      -0.01499511      -0.01376592       0.00035124      -0.01994164      -0.01837279      -0.00185009
H       -0.95662891      -4.82975537      -0.02219920       0.02091164      -0.00002641       0.00293068       0.02217404      -0.00600918       0.00396610
O        4.06817398      -4.35792427      -0.05025583       0.00128285      -0.00324906      -0.00162603       0.00322760       0.00095331      -0.00533674
H        3.80358199      -5.27406599       0.02096247       0.00606792       0.00617763       0.00420057       0.00821515       0.00005460       0.00124355
H        3.22858877      -3.88032027      -0.00818657       0.00667937      -0.00304210      -0.00386225       0.00187351      -0.00222489       0.00246226
21
Lattice="1.0 0.0 0.0 0.0 1.0 0.0 0.0 0.0 1.0" Properties=species:S:1:pos:R:3:mp2_forces:R:3:forces:R:3 mp2_energy=-25674.08293923254 energy=-25674.06795306888 free_energy=-25674.06795306888 stress="1.2523955979827928e-08 1.82639955263525e-08 3.686289660022717e-09 1.82639955263525e-08 -3.011055372231564e-08 4.099375774769069e-09 3.686289660022717e-09 4.099375774769069e-09 -1.3172364246569328e-09" pbc="F F F"
C        0.10540272      -0.30065613      -0.01889587       0.03022415       0.05342519       0.02101674      -0.00152445      -0.00257576      -0.00522598
C        1.56912462       0.04198101       0.01013056      -0.01257406      -0.00719222       0.00054044      -0.00240221       0.00103449      -0.00220818
H        2.10738764      -0.82266554       0.39657456       0.01465784      -0.00329139      -0.01374067       0.00001924      -0.00203565      -0.01286535
F       -0.63423986       0.87190616      -0.39935808       0.01138450      -0.06925685      -0.03452182      -0.00276471      -0.00247588      -0.00295801
Cl       0.97178582      -3.44956306       0.17340080      -0.00939647      -0.02286711       0.02653850       0.00269314      -0.00303405       0.02582245
H       -0.13055581      -1.07155471      -0.74334960      -0.00705634      -0.00658671       0.00126962       0.00156938      -0.00144196      -0.00773127
H       -0.27300587      -0.59448154       0.95847893       0.00687840      -0.00753284      -0.02828582      -0.00186079      -0.00669009      -0.00645204
H        1.75194479       0.91081036       0.64742022       0.00247070      -0.02945220       0.01313194      -0.00446405      -0.00625241       0.00800647
H        1.93852721       0.25654653      -0.99406261      -0.00931918       0.03493652      -0.00367151      -0.00389858       0.01492366       0.00033523
O       -2.93316993       2.40871375       0.25948288       0.00116097       0.04152325       0.03232701       0.02123046       0.02134153       0.01263408
H       -2.52973723       3.02359378      -0.35251897       0.07154788       0.04673738       0.00994169       0.00780642       0.01329806      -0.00410099
H       -2.41047048       1.60900745       0.18541271       0.00522835       0.02109046      -0.02216266       0.00973032       0.01489154       0.00150035
O        0.16304183       3.60799170      -0.21902277      -0.08688644      -0.01083789       0.00702495      -0.00163114      -0.00574160       0.00510355
H       -0.07180598       3.63025663       0.70826106      -0.05168700       0.01986839       0.02087328      -0.03899695      -0.01084882      -0.00470862
H        0.08964463       2.68491681      -0.46936289       0.01619584      -0.04552539      -0.02963356       0.00049570      -0.00355347      -0.00353223
O       -1.36368660      -5.70453349      -0.09082824      -0.00292114      -0.00060066      -0.00271986      -0.00154110       0.00538446      -0.00413040
H       -0.60106593      -6.28155437      -0.07030224      -0.01557987      -0.01415822       0.00028200      -0.02027565      -0.01863029      -0.00185317
H       -0.96167033      -4.83042369      -0.02148236       0.02170167      -0.00022997       0.00300335       0.02274943      -0.00633718       0.00398182
O        4.06700774      -4.35800510      -0.05009336       0.00100420      -0.00313552      -0.00162256       0.00310160       0.00099472      -0.00534029
H        3.80233112      -5.27415839       0.02068578       0.00616630       0.00623587       0.00418111       0.00827530       0.00005274       0.00122995
H        3.22741619      -3.88038415      -0.00823458       0.00679970      -0.00315010      -0.00377219       0.00168866      -0.00230406       0.00249263
21
Lattice="1.0 0.0 0.0 0.0 1.0 0.0 0.0 0.0 1.0" Properties=species:S:1:pos:R:3:mp2_forces:R:3:forces:R:3 mp2_energy=-25674.082878507772 energy=-25674.06803177049 free_energy=-25674.06803177049 stress="1.259527972597991e-08 1.8272476076602747e-08 3.716732863444904e-09 1.8272476076602747e-08 -2.9869641529992304e-08 4.113871912579204e-09 3.716732863444904e-09 4.113871912579204e-09 -1.3125715683499493e-09" pbc="F F F"
C        0.10521936      -0.30055033      -0.01866919       0.03008435       0.05341937       0.02121350      -0.00154284      -0.00263584      -0.00518032
C        1.56906376       0.04157146       0.00997450      -0.01250650      -0.00703712       0.00049984      -0.00241549       0.00103260      -0.00220374
H        2.10703981      -0.82294629       0.39708396       0.01474286      -0.00344446      -0.01380727       0.00006108      -0.00219420      -0.01289135
F       -0.63413607       0.87212841      -0.39934201       0.01149770      -0.06939829      -0.03466021      -0.00277651      -0.00253684      -0.00291794
Cl       0.97213699      -3.44947474       0.17348341      -0.00942332      -0.02302008       0.02656392       0.00277238      -0.00296291       0.02580232
H       -0.13114764      -1.07160309      -0.74282571      -0.00704387      -0.00667671       0.00133321       0.00157604      -0.00153922      -0.00770990
H       -0.27308630      -0.59390220       0.95888647       0.00677142      -0.00766518      -0.02811177      -0.00189781      -0.00675071      -0.00636176
H        1.75224586       0.91085621       0.64653166       0.00233968      -0.02924591       0.01321468      -0.00447766      -0.00609721       0.00816391
H        1.93848453       0.25511903      -0.99441744      -0.00915041       0.03522281      -0.00390547      -0.00383979       0.01503931       0.00010083
O       -2.93304304       2.40889601       0.25969792       0.00137773       0.04158044       0.03210140       0.02143485       0.02150803       0.01250543
H       -2.53030688       3.02323558      -0.35330936       0.07135339       0.04679176       0.01015336       0.00806416       0.01336000      -0.00394404
H       -2.41031359       1.60918956       0.18583243       0.00530772       0.02096982      -0.02212729       0.00963323       0.01485181       0.00149262
O        0.16327089       3.60823059      -0.21870795      -0.08668780      -0.01100844       0.00716024      -0.00195640      -0.00577260       0.00527626
H       -0.07265088       3.63040778       0.70831038      -0.05179590       0.01980733       0.02054823      -0.03913022      -0.01099128      -0.00503507
H        0.09003459       2.68519354      -0.46923748       0.01610121      -0.04529575      -0.02948712       0.00057404      -0.00362605      -0.00346848
O       -1.36383301      -5.70359317      -0.09116111      -0.00276269      -0.00069288      -0.00270599      -0.00136260       0.00534246      -0.00411940
H       -0.60247277      -6.28227055      -0.07049601      -0.01563087      -0.01372589       0.00028814      -0.02040788      -0.01823037      -0.00185108
H       -0.96011064      -4.83024580      -0.02172847       0.02144883      -0.00053389       0.00296523       0.02255741      -0.00657893       0.00396038
O        4.06733605      -4.35795048      -0.05009124       0.00110587      -0.00317929      -0.00161088       0.00314872       0.00097598      -0.00533556
H        3.80277723      -5.27413315       0.02073605       0.00610521       0.00622799       0.00418032       0.00822302       0.00005613       0.00123585
H        3.22769805      -3.88041436      -0.00821486       0.00676538      -0.00309562      -0.00380608       0.00176227      -0.00225015       0.00248102
21
Lattice="1.0 0.0 0.0 0.0 1.0 0.0 0.0 0.0 1.0" Properties=species:S:1:pos:R:3:mp2_forces:R:3:forces:R:3 mp2_energy=-25674.079143666266 energy=-25674.06630909884 free_energy=-25674.06630909884 stress="1.3345744463079593e-08 2.0292175890527983e-08 3.764040626179423e-09 2.0292175890527983e-08 -3.0753771480590727e-08 4.6263137558942635e-09 3.764040626179423e-09 4.6263137558942635e-09 -1.0586455120537529e-09" pbc="F F F"
C        0.10187010      -0.29916416      -0.00974314       0.02435259       0.05497540       0.01928942      -0.00149686      -0.00308181      -0.00456591