1
Properties=species:S:1:pos:R:3 mp2_energy=-13.600517822134075 free_energy=-13.600517822134075 config_type=IsolatedAtom pbc="F F F"
H        0.00000000       0.00000000       0.00000000
1
Properties=species:S:1:pos:R:3 mp2_energy=-1027.5647719688623 free_energy=-1027.5647719688623 config_type=IsolatedAtom pbc="F F F"
C        0.00000000       0.00000000       0.00000000
1
Properties=species:S:1:pos:R:3 mp2_energy=-2039.1187770138454 free_energy=-2039.1187770138454 config_type=IsolatedAtom pbc="F F F"
O        0.00000000       0.00000000       0.00000000
1
Properties=species:S:1:pos:R:3 mp2_energy=-2711.1240911830328 free_energy=-2711.1240911830328 config_type=IsolatedAtom pbc="F F F"
F        0.00000000       0.00000000       0.00000000
1
Properties=species:S:1:pos:R:3 mp2_energy=-12510.40325874303 free_energy=-12510.40325874303 config_type=IsolatedAtom pbc="F F F"
Cl       0.00000000       0.00000000       0.00000000
21
Lattice="1.0 0.0 0.0 0.0 1.0 0.0 0.0 0.0 1.0" Properties=species:S:1:pos:R:3:mp2_forces:R:3:forces:R:3 mp2_energy=-25673.79846730283 energy=-25674.00000887593 free_energy=-25674.00000887593 pbc="F F F"
C        0.19977946      -0.21888607       0.01938084       0.30839746       0.53289456      -2.38865061       0.00177141      -0.00466653      -0.00515134
C        1.68021870       0.11569523       0.01087015      -0.88865423      -2.09415321       1.44801614      -0.00070580       0.00362097      -0.00222587
H        2.17838276      -0.83887438       0.30609121      -0.18211141       0.77549192      -0.11187902       0.00513300       0.00198689      -0.01552557
F       -0.54616347       0.98806484      -0.25572296      -0.00828428       0.12283770       0.10389479      -0.00396999      -0.00928353      -0.01023889
Cl       0.89632468      -3.39946651       0.06910358      -0.05155474      -0.02328613      -0.00313430       0.00298302      -0.00766322       0.02059906
H       -0.09488430      -0.90722523      -0.77891108       0.33458269       0.13382133       0.17509625       0.00803442      -0.00751329      -0.00402454
H       -0.20144963      -0.60205746       0.90573846      -0.21002567      -0.45400335       1.62559932       0.00145788      -0.00420912      -0.00579310
H        1.86851697       0.88238675       0.74062336       0.33963829       0.45804662       0.25091487      -0.00291592      -0.00524533       0.00938272
H        2.03245072       0.36803088      -0.95164279       0.27728732       0.55725508      -1.14371389      -0.00325514       0.02050384       0.00135400
O       -3.16520148       2.12165820       0.24804956       0.34422573       0.40999373      -0.51581397       0.02398902       0.04045476       0.00635658
H       -2.92108029       2.82271902      -0.37667397      -0.17119901      -0.47288410       0.43422058       0.02804823       0.01287895      -0.02456182
H       -2.50028961       1.43805532       0.11695365      -0.08236498       0.13459134       0.08306105       0.00926455       0.02199541       0.01706540
O        0.44989678       3.70120384      -0.24926452       0.03590051      -0.27986723      -0.41551285      -0.04567442       0.00140192       0.00151353
H        0.06407154       3.83220163       0.60030215      -0.25829902       0.50943146       0.87179071      -0.00412384      -0.02951754       0.02361454
H        0.24414161       2.78048637      -0.40561173       0.14942907      -0.30283633      -0.44232180      -0.03099053       0.00143283      -0.01365632
O       -1.35494535      -5.77333676      -0.01885122      -0.96742575       2.01556935      -0.01480677      -0.00561584      -0.00305274      -0.00242627
H       -0.60917903      -6.32077165      -0.05167697       1.44327076      -1.21528788      -0.04377850      -0.01401706      -0.01513092      -0.00023471
H       -0.94604514      -4.87683830      -0.03143061      -0.45909326      -0.79541206       0.07728111       0.00594475      -0.00877758       0.00331048
O        3.94809813      -4.38136448      -0.04584029      -0.33828021      -0.77533716       0.01338589       0.00617242       0.00085537      -0.00515555
H        3.63989054      -5.30269012       0.01741316       0.28867718       0.81599039      -0.04000724       0.01727713      -0.00248414       0.00543558
H        3.11851729      -3.88008952      -0.05946865       0.09588356      -0.05285602       0.03635822       0.00119272      -0.00758699       0.00036207
21
Lattice="1.0 0.0 0.0 0.0 1.0 0.0 0.0 0.0 1.0" Properties=species:S:1:pos:R:3:mp2_forces:R:3:forces:R:3 mp2_energy=-25673.073774502842 energy=-25673.290869049262 free_energy=-25673.290869049262 pbc="F F F"
C        0.49118720      -1.05097055       0.04451472       0.19433387       0.44888450      -2.97796311       0.00060496      -0.00383666       0.00162078
C        1.77642059      -0.22240855       0.05018329      -0.58841524      -1.35472428       0.97215820      -0.00226337       0.00070658       0.00098236
H        2.37599901      -0.54250091       0.91911945       0.00741405       0.39212289      -0.22093654      -0.00208332       0.00544334       0.00254102
F       -0.74690360       1.29945625      -0.09188683      -0.05968792       0.11313519      -0.06215297      -0.00758369      -0.00905290      -0.02561702
Cl       0.83102532      -2.84291819      -0.15864763       0.08663689       0.10212055       0.00101196       0.00590412      -0.00202635      -0.00134929
H       -0.16624723      -0.73191748      -0.80757215       0.80492143      -0.44063709       0.84776878      -0.00162143      -0.00341216       0.00334538
H       -0.11304616      -0.98115283       0.88791723      -0.68056590       0.29364776       1.69400321       0.00157081      -0.00746596       0.00307034
H        1.43265579       0.79827295       0.13757175       0.11192199       0.34833066      -0.09867197      -0.00564594       0.00008646      -0.00325942
H        2.35570885      -0.41476634      -0.84705796       0.02279459       0.20338321      -0.23236484      -0.00100770      -0.00008143       0.00194453
O       -3.25254626       1.97806831       0.21981134      -0.60133874       0.33912227      -0.07061221       0.00790496       0.01944760       0.02138554
H       -3.19001863       2.80523398      -0.25994986       0.01496901      -0.14369072       0.07105698      -0.00037774      -0.00391041      -0.02225462
H       -2.37173520       1.58526212       0.12735302       0.65144567      -0.14983128       0.04451706       0.00183954       0.00952424       0.01059259
O        0.56018151       3.53635515      -0.30663362      -0.45833146      -1.19370358      -1.26764817      -0.00616415      -0.00801423       0.00303283
H        0.35219687       3.78267290       0.56619059      -0.12713817       0.68115241       1.55789557       0.01193202      -0.02989676       0.01390913
H        0.01048208       2.69387186      -0.37376565       0.59845834       0.31282640      -0.26338343      -0.00869057      -0.00461210      -0.00876208
O       -1.27154867      -5.67850623      -0.05321770      -1.44981938       1.19907520      -0.07548156       0.00082336       0.00370288      -0.00129028
H       -0.35149521      -5.80968424      -0.05873484       1.63153222      -0.44853756       0.01520950       0.00271934       0.01528790       0.00387043
H       -1.34837024      -4.71030804      -0.11521642      -0.17989762      -0.71247668       0.06136272      -0.00999021       0.00286524      -0.00412742
O        3.92360572      -4.34861916      -0.00476783      -0.19152008      -0.69612349       0.00260688       0.00395456       0.00251521      -0.00071240
H        3.26306277      -5.05489894      -0.00846253       0.38040425       0.42307892       0.01059243      -0.00078105       0.00709010       0.00371286
H        3.42043639      -3.54164045      -0.05731704      -0.16811781       0.28284474      -0.00896847       0.00895547       0.00563942      -0.00263526
21
Lattice="1.0 0.0 0.0 0.0 1.0 0.0 0.0 0.0 1.0" Properties=species:S:1:pos:R:3:mp2_forces:R:3:forces:R:3 mp2_energy=-25673.610631712807 energy=-25674.00000887593 free_energy=-25674.00000887593 pbc="F F F"
C        0.19698532      -0.23912434      -0.01075736      -2.10504644       0.54714437      -1.05815636       0.00177141      -0.00466653      -0.00515134
C        1.61394147       0.09565222      -0.01561506       2.50792790      -0.97294461       3.02289774      -0.00070580       0.00362097      -0.00222587
H        2.19427723      -0.85107138       0.31453637      -1.02562663       1.41174570      -0.63284938       0.00513300       0.00198689      -0.01552557
F       -0.55936285       1.01442613      -0.32601124       0.44052725      -0.84649502       0.27600984      -0.00396999      -0.00928353      -0.01023889
Cl       0.87465559      -3.40958110       0.08290171       0.00162900       0.01070810       0.00099050       0.00298302      -0.00766322       0.02059906
H       -0.12355562      -0.94055537      -0.79236508       0.34077942       0.24860107       0.32844515       0.00803442      -0.00751329      -0.00402454
H       -0.20686671      -0.57331925       0.93478588       0.11371993      -0.01301473       0.23108446       0.00145788      -0.00420912      -0.00579310
H        1.87833907       0.88312984       0.76551655      -0.49411007      -0.81309363      -1.05979516      -0.00291592      -0.00524533       0.00938272
H        2.00507275       0.38344363      -0.95501576       0.21244872       0.42620221      -1.14431096      -0.00325514       0.02050384       0.00135400
O       -3.18017319       2.08564486       0.22926949       0.48410588       0.29673267      -0.50544877       0.02398902       0.04045476       0.00635658
H       -2.93801246       2.80722070      -0.37266171      -0.16266272      -0.49157955       0.42509026       0.02804823       0.01287895      -0.02456182
H       -2.47757779       1.43158864       0.11357338      -0.23436522       0.26876613       0.07795172       0.00926455       0.02199541       0.01706540
O        0.40294476       3.68184455      -0.20832194       1.65082132       0.55426073      -3.54139251      -0.04567442       0.00140192       0.00151353
H        0.08495848       3.84933598       0.61094993      -1.46967359       0.65879107       3.74136126      -0.00412384      -0.02951754       0.02361454
H        0.26332384       2.77531995      -0.39440253      -0.26821458      -1.24337690      -0.18596620      -0.03099053       0.00143283      -0.01365632
O       -1.35892377      -5.74446254       0.00760407       0.07686525      -1.27515282      -0.07249545      -0.00561584      -0.00305274      -0.00242627
H       -0.57449789      -6.30417278      -0.02776423      -0.41283113       0.02726563       0.04255544      -0.01401706      -0.01513092      -0.00023471
H       -0.96082819      -4.88947256      -0.01480482       0.31430358       1.23032472       0.05006507       0.00594475      -0.00877758       0.00331048
O        3.94448389      -4.37819866      -0.03039096      -0.38662112       0.57750458      -0.04035132       0.00617242       0.00085537      -0.00515555
H        3.65246314      -5.28429193       0.04237080      -0.15622465       0.02225943       0.01550060       0.01727713      -0.00248414       0.00543558
H        3.11687854      -3.84784110      -0.03294712       0.57224790      -0.62464915       0.02881408       0.00119272      -0.00758699       0.00036207
21
Lattice="1.0 0.0 0.0 0.0 1.0 0.0 0.0 0.0 1.0" Properties=species:S:1:pos:R:3:mp2_forces:R:3:forces:R:3 mp2_energy=-25672.958233635905 energy=-25673.290869049262 free_energy=-25673.290869049262 pbc="F F F"
C        0.48839306      -1.07120882       0.01437652      -2.28269856       0.41533076      -0.78350535       0.00060496      -0.00383666       0.00162078
C        1.71014336      -0.24245156       0.02369808       2.33879110      -0.76420987       2.37690058      -0.00226337       0.00070658       0.00098236
H        2.39189348      -0.55469791       0.92756461      -1.16895117       0.58465115      -1.49285458      -0.00208332       0.00544334       0.00254102
F       -0.76010298       1.32581754      -0.16217511      -0.12529383      -0.17370816      -0.00578959      -0.00758369      -0.00905290      -0.02561702
Cl       0.80935623      -2.85303278      -0.14484950       0.18941277       0.01060242      -0.04061140       0.00590412      -0.00202635      -0.00134929
H       -0.19491855      -0.76524762      -0.82102615       0.79858004      -0.40234595       0.79016760      -0.00162143      -0.00341216       0.00334538
H       -0.11846324      -0.95241462       0.91696465       0.33364509      -0.03749491      -0.13663386       0.00157081      -0.00746596       0.00307034
H        1.44247789       0.79901604       0.16246494      -0.25458517       0.07123014      -0.27217608      -0.00564594       0.00008646      -0.00325942
H        2.32833088      -0.39935359      -0.85043093       0.01412220       0.16081208      -0.45036276      -0.00100770      -0.00008143       0.00194453
O       -3.26751797       1.94205497       0.20103127       0.25122150       0.31224966      -0.21825759       0.00790496       0.01944760       0.02138554
H       -3.20695080       2.78973566      -0.25593760      -0.02384693      -0.42008825       0.20512474      -0.00037774      -0.00391041      -0.02225462
H       -2.34902338       1.57879544       0.12397275      -0.16030042       0.14322383       0.01043191       0.00183954       0.00952424       0.01059259
O        0.51322949       3.51699586      -0.26569104       1.24148337      -0.04580368      -3.41139788      -0.00616415      -0.00801423       0.00303283
H        0.37308381       3.79980725       0.57683837      -0.62215210       1.01827482       3.42063194       0.01193202      -0.02989676       0.01390913
H        0.02966431       2.68870544      -0.36255645      -0.54428313      -0.90523576       0.00239398      -0.00869057      -0.00461210      -0.00876208
O       -1.27552709      -5.64963201      -0.02676241       0.93448887      -1.43835075       0.07313101       0.00082336       0.00370288      -0.00129028
H       -0.31681407      -5.79308537      -0.03482210      -0.67327612       0.00723550       0.02367740       0.00271934       0.01528790       0.00387043
H       -1.36315329      -4.72294230      -0.09859063      -0.26961887       1.45579074      -0.09507563      -0.00999021       0.00286524      -0.00412742
O        3.91999148      -4.34545334       0.01068150       0.13084008       1.21305225      -0.04545209       0.00395456       0.00251521      -0.00071240
H        3.27563537      -5.03650075       0.01649511      -0.49692881      -0.37447487       0.00641537      -0.00078105       0.00709010       0.00371286
H        3.41879764      -3.50939203      -0.03079551       0.38935009      -0.83074115       0.04324227       0.00895547       0.00563942      -0.00263526
21
Lattice="1.0 0.0 0.0 0.0 1.0 0.0 0.0 0.0 1.0" Properties=species:S:1:pos:R:3:mp2_forces:R:3:forces:R:3 mp2_energy=-25673.59677376965 energy=-25674.00000887593 free_energy=-25674.00000887593 pbc="F F F"
C        0.15616325      -0.22801455      -0.04291784       0.77753659       0.79178979       3.06563663       0.00177141      -0.00466653      -0.00515134
C        1.66820626       0.04247536       0.01358076      -1.61781832       1.48894780       0.04124105      -0.00070580       0.00362097      -0.00222587
H        2.16943862      -0.86075300       0.28699655       0.34320667      -0.55499009       0.16262351       0.00513300       0.00198689      -0.01552557
F       -0.57255559       0.99621305      -0.23896427       0.31972522      -0.16547402      -0.47809102      -0.00396999      -0.00928353      -0.01023889
Cl       0.88193472      -3.42425852       0.07100749       0.00499157       0.03074207       0.00585646       0.00298302      -0.00766322       0.02059906
H       -0.11348098      -0.93748942      -0.75130789      -0.57000015      -0.96226517      -1.63381164       0.00803442      -0.00751329      -0.00402454
H       -0.22266840      -0.58479504       0.93923610       0.41899858       0.07521446      -0.63974333       0.00145788      -0.00420912      -0.00579310
H        1.85231592       0.87022944       0.73569108       0.03202469      -0.65202769      -0.32918561      -0.00291592      -0.00524533       0.00938272
H        1.98027919       0.39239451      -0.96531106       0.32316119      -0.05072535      -0.19706607      -0.00325514       0.02050384       0.00135400
O       -3.18521005       2.06257828       0.21559248       0.38989599       2.98042689      -1.91636027       0.02398902       0.04045476       0.00635658
H       -2.92956038       2.85978311      -0.40761361      -0.73869185      -2.69260393       2.01800247       0.02804823       0.01287895      -0.02456182
H       -2.45841915       1.45242245       0.14101935       0.37967513      -0.21577840      -0.10460562       0.00926455       0.02199541       0.01706540
O        0.43532811       3.66027197      -0.24151778       0.08395459       2.74438197       1.34311634      -0.04567442       0.00140192       0.00151353
H        0.08096465       3.84690253       0.64412274       0.35249259       0.04605258      -0.68185781      -0.00412384      -0.02951754       0.02361454
H        0.24090520       2.77609455      -0.36606513      -0.49749973      -2.82067749      -0.65627465      -0.03099053       0.00143283      -0.01365632
O       -1.35289741      -5.73605403      -0.03344162      -0.45751378      -0.87063198      -0.02887413      -0.00561584      -0.00305274      -0.00242627
H       -0.59348378      -6.31476264      -0.01376032       0.02859019      -0.04373057       0.00194388      -0.01401706      -0.01513092      -0.00023471
H       -0.96140504      -4.87413559      -0.00930739       0.39683429       0.87388025       0.02674703       0.00594475      -0.00877758       0.00331048
O        3.95733170      -4.36436354      -0.05986422      -0.35852233      -0.91082970       0.04031317       0.00617242       0.00085537      -0.00515555
H        3.64400902      -5.28568136      -0.01250427       0.38289310       0.78034044      -0.03877288       0.01727713      -0.00248414       0.00543558
H        3.12358017      -3.87554504      -0.04399712       0.00606575       0.12795816      -0.00083750       0.00119272      -0.00758699       0.00036207
21
Lattice="1.0 0.0 0.0 0.0 1.0 0.0 0.0 0.0 1.0" Properties=species:S:1:pos:R:3:mp2_forces:R:3:forces:R:3 mp2_energy=-25672.922533653742 energy=-25673.290869049262 free_energy=-25673.290869049262 pbc="F F F"
C        0.44757099      -1.06009903      -0.01778396       1.32075223      -0.63021758       2.82600148       0.00060496      -0.00383666       0.00162078
C        1.76440815      -0.29562842       0.05289390      -2.16012930       1.76678212       0.05640784      -0.00226337       0.00070658       0.00098236
H        2.36705487      -0.56437953       0.90002479       0.30112877      -0.23449660       0.42546865      -0.00208332       0.00544334       0.00254102
F       -0.77329572       1.30760446      -0.07512814      -0.01377456      -0.04143800       0.00701714      -0.00758369      -0.00905290      -0.02561702
Cl       0.81663536      -2.86771020      -0.15674372      -0.20311211       0.20931186      -0.18041052       0.00590412      -0.00202635      -0.00134929
H       -0.18484391      -0.76218167      -0.77996896      -0.97419167       0.45521993      -1.73370714      -0.00162143      -0.00341216       0.00334538
H       -0.13426493      -0.96389041       0.92141487       0.50798789      -0.03794699      -0.62306257       0.00157081      -0.00746596       0.00307034
H        1.41645474       0.78611564       0.13263947       0.53146912      -1.28717590      -0.00746786      -0.00564594       0.00008646      -0.00325942
H        2.30353732      -0.39040271      -0.86072623       0.63345283      -0.18803042      -0.73997047      -0.00100770      -0.00008143       0.00194453
O       -3.27255483       1.91898839       0.18735426       0.50577440       2.97085598      -1.50234070       0.00790496       0.01944760       0.02138554
H       -3.19849872       2.84229807      -0.29088950      -0.25017362      -2.99826527       1.52032813      -0.00037774      -0.00391041      -0.02225462
H       -2.32986474       1.59962925       0.15141872      -0.29084874       0.02934058      -0.02345693       0.00183954       0.00952424       0.01059259
O        0.54561284       3.49542328      -0.29888688       0.06973707       0.96649427       1.03129032      -0.00616415      -0.00801423       0.00303283
H        0.36908998       3.79737380       0.61001118       0.29856759      -0.13082774      -0.75656748       0.01193202      -0.02989676       0.01390913
H        0.00724567       2.68948004      -0.33421905      -0.28102542      -0.88084032      -0.29584855      -0.00869057      -0.00461210      -0.00876208
O       -1.26950073      -5.64122350      -0.06780810      -0.29004582      -1.05744798       0.01109195       0.00082336       0.00370288      -0.00129028
H       -0.33579996      -5.80367523      -0.02081819       0.35800612      -0.00696183       0.02106799       0.00271934       0.01528790       0.00387043
H       -1.36373014      -4.70760533      -0.09309320      -0.07853072       1.07914137      -0.03350043      -0.00999021       0.00286524      -0.00412742
O        3.93283929      -4.33161822      -0.01879176      -0.12826627      -1.28100314       0.00876221       0.00395456       0.00251521      -0.00071240
H        3.26718125      -5.03789018      -0.03837996       0.55075554       0.48331250       0.01549105      -0.00078105       0.00709010       0.00371286
H        3.42549927      -3.53709597      -0.04184551      -0.40753332       0.81419314      -0.02659411       0.00895547       0.00563942      -0.00263526
21
Lattice="1.0 0.0 0.0 0.0 1.0 0.0 0.0 0.0 1.0" Properties=species:S:1:pos:R:3:mp2_forces:R:3:forces:R:3 mp2_energy=-25673.59963121925 energy=-25674.00000887593 free_energy=-25674.00000887593 pbc="F F F"
C        0.20027098      -0.21815901       0.00173603      -3.09743537      -1.89675965      -1.23545003       0.00177141      -0.00466653      -0.00515134
C        1.59813099       0.07279631       0.02332053       3.10605371       0.74856306       1.30429336      -0.00070580       0.00362097      -0.00222587
H        2.15772616      -0.84838725       0.30727923      -0.48201495       0.63253696      -0.15313410       0.00513300       0.00198689      -0.01552557
F       -0.56391980       0.95890667      -0.26711598       0.00109652       0.48740186      -0.05889511      -0.00396999      -0.00928353      -0.01023889
Cl       0.89873029      -3.36770855       0.06122699       0.00165675      -0.11469732       0.01947952       0.00298302      -0.00766322       0.02059906
H       -0.10965134      -0.94801401      -0.80573746       0.60317737       0.83984306       1.00612971       0.00803442      -0.00751329      -0.00402454
H       -0.18806363      -0.60699690       0.93309733       0.02263496      -0.06418289       0.27521680       0.00145788      -0.00420912      -0.00579310
H        1.85133160       0.89482100       0.76020099      -0.29639778      -0.89136326      -0.68274414      -0.00291592      -0.00524533       0.00938272
H        1.96657993       0.38285833      -0.94005306       0.15144709       0.19619383      -0.51608210      -0.00325514       0.02050384       0.00135400
O       -3.16466807       2.07562589       0.21406177       0.55902265       2.05003823      -1.48729240       0.02398902       0.04045476       0.00635658
H       -2.90927811       2.85467799      -0.38380073      -0.58945737      -1.93574616       1.47354878       0.02804823       0.01287895      -0.02456182
H       -2.47320202       1.42893824       0.06544501       0.08824207      -0.03904237       0.02970323       0.00926455       0.02199541       0.01706540
O        0.40681513       3.65667872      -0.21903842       0.25962971      -0.93008890      -1.19012531      -0.04567442       0.00140192       0.00151353
H        0.06747932       3.82070698       0.64163602      -0.37627077      -0.01701911       0.87506587      -0.00412384      -0.02951754       0.02361454
H        0.27114159       2.70660804      -0.40735168       0.02031685       0.93093991       0.33300844      -0.03099053       0.00143283      -0.01365632
O       -1.35795575      -5.76575850      -0.03380675      -0.78693487       3.15027579       0.08087727      -0.00561584      -0.00305274      -0.00242627
H       -0.62186623      -6.32187208      -0.01350397       1.64084199      -1.26875117       0.03698923      -0.01401706      -0.01513092      -0.00023471
H       -0.93672723      -4.84445845       0.01456984      -0.81728414      -1.86812584      -0.12404220       0.00594475      -0.00877758       0.00331048
O        3.97841263      -4.41229713      -0.03025396      -1.51635517       0.32181410      -0.05832773       0.00617242       0.00085537      -0.00515555
H        3.59662331      -5.30206138      -0.01362146       0.28733968       0.47794391       0.00605216       0.01727713      -0.00248414       0.00543558
H        3.15292945      -3.84622370      -0.04715401       1.22069110      -0.80977405       0.06572877       0.00119272      -0.00758699       0.00036207
21
Lattice="1.0 0.0 0.0 0.0 1.0 0.0 0.0 0.0 1.0" Properties=species:S:1:pos:R:3:mp2_forces:R:3:forces:R:3 mp2_energy=-25672.86092395635 energy=-25673.290869049262 free_energy=-25673.290869049262 pbc="F F F"
C        0.49167872      -1.05024349       0.02686991      -2.93414102      -0.55036785      -1.61659763       0.00060496      -0.00383666       0.00162078
C        1.69433288      -0.26530747       0.06263367       2.42896853       1.66800751       0.96355330      -0.00226337       0.00070658       0.00098236
H        2.35534241      -0.55201378       0.92030747      -0.48787908       0.25696081      -0.51198260      -0.00208332       0.00544334       0.00254102
F       -0.76465993       1.27029808      -0.10327985       0.00484170       0.04652225      -0.13481038      -0.00758369      -0.00905290      -0.02561702
Cl       0.83343093      -2.81116023      -0.16652422       0.28180989      -0.68532137      -0.06343280       0.00590412      -0.00202635      -0.00134929
H       -0.18101427      -0.77270626      -0.83439853       0.86983760      -0.19397219       1.13599810      -0.00162143      -0.00341216       0.00334538
H       -0.09966016      -0.98609227       0.91527610      -0.28971012       0.21488021       0.48801320       0.00157081      -0.00746596       0.00307034
H        1.41547042       0.81070720       0.15714938       0.07205626      -0.88318956      -0.11380955      -0.00564594       0.00008646      -0.00325942
H        2.28983806      -0.39993889      -0.83546823       0.09383231       0.08137875      -0.27526668      -0.00100770      -0.00008143       0.00194453
O       -3.25201285       1.93203600       0.18582355      -0.04170672       2.40112766      -1.21589720       0.00790496       0.01944760       0.02138554
H       -3.17821645       2.83719295      -0.26707662      -0.22114354      -2.24124231       1.13348866      -0.00037774      -0.00391041      -0.02225462
H       -2.34464761       1.57614504       0.07584438       0.25097758      -0.12502467       0.15411509       0.00183954       0.00952424       0.01059259
O        0.51709986       3.49183003      -0.27640752       0.11216918      -0.51102428      -1.05226012      -0.00616415      -0.00801423       0.00303283
H        0.35560465       3.77117825       0.60752446      -0.23442235       0.06070960       0.79281656       0.01193202      -0.02989676       0.01390913
H        0.03748206       2.61999353      -0.37550560       0.08364333       0.40192219       0.31688552      -0.00869057      -0.00461210      -0.00876208
O       -1.27455907      -5.67092797      -0.06817323      -1.99464086       2.24949768      -0.09613093       0.00082336       0.00370288      -0.00129028
H       -0.36418241      -5.81078467      -0.02056184       2.11401479      -0.53430780       0.11422732       0.00271934       0.01528790       0.00387043
H       -1.33905233      -4.67792819      -0.06921597      -0.11350846      -1.67283668      -0.02064492      -0.00999021       0.00286524      -0.00412742
O        3.95392022      -4.37955181       0.01081850      -2.43568316       0.54037739      -0.22327351       0.00395456       0.00251521      -0.00071240
H        3.21979554      -5.05427020      -0.03949715       1.38653416       1.22721730       0.09916708      -0.00078105       0.00709010       0.00371286
H        3.45484855      -3.50777463      -0.04500240       1.05414998      -1.75131465       0.12584150       0.00895547       0.00563942      -0.00263526
21
Lattice="1.0 0.0 0.0 0.0 1.0 0.0 0.0 0.0 1.0" Properties=species:S:1:pos:R:3:mp2_forces:R:3:forces:R:3 mp2_energy=-25673.716312195203 energy=-25674.00000887593 free_energy=-25674.00000887593 pbc="F F F"
C        0.16550964      -0.21689018      -0.02011210       0.36193550       0.45636974       0.57455373       0.00177141      -0.00466653      -0.00515134
C        1.64927281       0.06997804      -0.00127583      -1.04362583       0.73071793       1.80281949      -0.00070580       0.00362097      -0.00222587
H        2.14642685      -0.82387574       0.31480059       0.32821038      -0.60172544       0.06293036       0.00513300       0.00198689      -0.01552557
F       -0.57732497       0.99755736      -0.28656817       0.27166677      -0.39923434      -0.05751041      -0.00396999      -0.00928353      -0.01023889
Cl       0.88960538      -3.39525495       0.03708999      -0.03734900       0.01750058       0.03602616       0.00298302      -0.00766322       0.02059906
H       -0.09453785      -0.94924456      -0.74386832      -0.33265772      -0.34966450      -0.84873109       0.00803442      -0.00751329      -0.00402454