21
Lattice="1.0 0.0 0.0 0.0 1.0 0.0 0.0 0.0 1.0" Properties=species:S:1:pos:R:3:mp2_forces:R:3:forces:R:3 mp2_energy=-25669.004809123442 energy=-25674.00000887593 free_energy=-25674.00000887593 pbc="F F F"
C        0.16449841      -0.22688921      -0.00019392       0.02520861      -0.02838867       0.00005940       0.00177141      -0.00466653      -0.00515134
C        1.63540084       0.07834407       0.03041571      -0.03334038      -0.00005276       0.00015753      -0.00070580       0.00362097      -0.00222587
H        2.15938099      -0.83584724       0.30815559      -0.02379320       0.02684727      -0.00003962       0.00513300       0.00198689      -0.01552557
F       -0.55437544       0.98518397      -0.28480843       0.00764467      -0.04609678       0.00057088      -0.00396999      -0.00928353      -0.01023889
Cl       0.88110393      -3.40190001       0.06022632      -0.00303207       0.00327824       0.00000605       0.00298302      -0.00766322       0.02059906
H       -0.10155779      -0.93710681      -0.77480791       0.02531842       0.02018914       0.01193200       0.00803442      -0.00751329      -0.00402454
H       -0.20771098      -0.58497555       0.95679826       0.02518310       0.02041626      -0.01261682       0.00145788      -0.00420912      -0.00579310
H        1.85544460       0.86509803       0.75546666      -0.01807683      -0.00921250      -0.02739735      -0.00291592      -0.00524533       0.00938272
H        1.98705563       0.39711819      -0.95255796      -0.01896744      -0.00939623       0.02743771      -0.00325514       0.02050384       0.00135400
O       -3.16145780       2.09100262       0.21866238       0.01788502       0.00752596       0.00024092       0.02398902       0.04045476       0.00635658
H       -2.92417924       2.81515577      -0.35891826      -0.00005808      -0.00429745      -0.00004192       0.02804823       0.01287895      -0.02456182
H       -2.46067368       1.44501356       0.11382667      -0.01992517       0.01473028      -0.00017627       0.00926455       0.02199541       0.01706540
O        0.42529097       3.67715624      -0.24151798      -0.00762941      -0.01045076       0.00072020      -0.04567442       0.00140192       0.00151353
H        0.07011760       3.85317269       0.62870251       0.00884785       0.01126170      -0.00104918      -0.00412384      -0.02951754       0.02361454
H        0.27826701       2.74147086      -0.39541869       0.00793100       0.02846349       0.00013742      -0.03099053       0.00143283      -0.01365632
O       -1.34618386      -5.74828085      -0.03440103       0.00087592      -0.00433965      -0.00013380      -0.00561584      -0.00305274      -0.00242627
H       -0.57690107      -6.31651684      -0.03376764      -0.01595972      -0.00288001       0.00008316      -0.01401706      -0.01513092      -0.00023471
H       -0.95378319      -4.86662220      -0.00781797      -0.00237884      -0.01175777       0.00009761       0.00594475      -0.00877758       0.00331048
O        3.94866177      -4.38993112      -0.04717063       0.00214457       0.00063924      -0.00006669       0.00617242       0.00085537      -0.00515555
H        3.63384110      -5.29000368       0.02466798       0.01577206       0.00171354      -0.00000083       0.01727713      -0.00248414       0.00543558
H        3.13196650      -3.87289846      -0.04320572       0.00634992      -0.00819253       0.00007960       0.00119272      -0.00758699       0.00036207
21
Lattice="1.0 0.0 0.0 0.0 1.0 0.0 0.0 0.0 1.0" Properties=species:S:1:pos:R:3:mp2_forces:R:3:forces:R:3 mp2_energy=-25669.004809123442 energy=-25674.43535913645 free_energy=-25674.43535913645 stress="-1.860340584357582e-09 2.708556076053777e-09 1.8434955089181207e-09 2.708556076053777e-09 -7.062941421528816e-10 -6.9386846822760115e-12 1.8434955089181207e-09 -6.9386846822760115e-12 3.89868766488448e-10" pbc="F F F"
C        0.11344768      -0.43972758      -0.12759488       0.02520861      -0.02838867       0.00005940      -0.00136208      -0.00535322      -0.00458028
C        1.49862020       0.12433700       0.00101830      -0.03334038      -0.00005276       0.00015753      -0.00501078       0.00193077       0.00098731
H        2.16737029      -0.67100900       0.32928145      -0.02379320       0.02684727      -0.00003962      -0.00187051       0.00551619       0.00305422
F       -0.74012978       0.61224866      -0.60813663       0.00764467      -0.04609678       0.00057088      -0.00459961      -0.00888957      -0.00649704
Cl       1.03048909      -3.53423479       0.52087031      -0.00303207       0.00327824       0.00000605       0.00503984      -0.00121387       0.00870843
H        0.05254918      -1.25220359      -0.84111003       0.02531842       0.02018914       0.01193200       0.00596543      -0.00507398      -0.00548642
H       -0.30073199      -0.77155036       0.82158263       0.02518310       0.02041626      -0.01261682      -0.00266169      -0.00889447      -0.00642332
H        1.52594067       0.94412215       0.72098683      -0.01807683      -0.00921250      -0.02739735      -0.01249731       0.00149980       0.00162492
H        1.84456698       0.50261589      -0.96202345      -0.01896744      -0.00939623       0.02743771      -0.00365848       0.00463963       0.00257641
O       -2.44141398       2.73454412       0.36319429       0.01788502       0.00752596       0.00024092       0.00191658      -0.00124741       0.00612745
H       -2.45944604       3.16522448      -0.49150289      -0.00005808      -0.00429745      -0.00004192       0.00613459       0.01264951       0.01480313
H       -1.96379428       1.91603179       0.23222485      -0.01992517       0.01473028      -0.00017627      -0.00329430      -0.00396286      -0.00700655
O       -0.14532826       3.41103443      -0.15993395      -0.00762941      -0.01045076       0.00072020       0.00687603      -0.00301527      -0.00505644
H       -0.25972536       3.48018239       0.78758492       0.00884785       0.01126170      -0.00104918       0.00015465       0.00728582      -0.00562479
H       -0.22048628       2.48202133      -0.37869489       0.00793100       0.02846349       0.00013742       0.00093292      -0.00334086       0.00239515
O       -1.43134001      -5.59248648      -0.10892387       0.00087592      -0.00433965      -0.00013380      -0.00151558       0.00740167      -0.00010906
H       -0.81090502      -6.32010413      -0.10573033      -0.01595972      -0.00288001       0.00008316      -0.00799082       0.00176131      -0.00161067
H       -0.87675147      -4.82289628       0.07499813      -0.00237884      -0.01175777       0.00009761       0.00451481       0.00227892       0.00296339
O        4.11347916      -4.33368887      -0.15179954       0.00214457       0.00063924      -0.00006669       0.00348528      -0.00085209      -0.00194035
H        3.92252421      -5.25841609      -0.00138110       0.01577206       0.00171354      -0.00000083       0.00595502      -0.00108249      -0.00007932
H        3.26527131      -3.89830103       0.00742580       0.00634992      -0.00819253       0.00007960       0.00348601      -0.00203751       0.00117385
21
Lattice="1.0 0.0 0.0 0.0 1.0 0.0 0.0 0.0 1.0" Properties=species:S:1:pos:R:3:mp2_forces:R:3:forces:R:3 mp2_energy=-25669.004809123442 energy=-25674.436062461584 free_energy=-25674.436062461584 stress="-2.633185518504989e-09 3.9144094646400515e-09 1.8874730030391253e-09 3.9144094646400515e-09 -3.2758971082041015e-09 2.4608432289450623e-10 1.8874730030391253e-09 2.4608432289450623e-10 2.5099917388577097e-10" pbc="F F F"
C        0.11986101      -0.44518815      -0.13235223       0.02520861      -0.02838867       0.00005940      -0.00151108      -0.00540983      -0.00480322
C        1.50109088       0.12609586       0.00619748      -0.03334038      -0.00005276       0.00015753      -0.00514151       0.00163541       0.00083383
H        2.17160317      -0.66547654       0.33996816      -0.02379320       0.02684727      -0.00003962      -0.00182797       0.00492140       0.00170730
F       -0.73664764       0.60361403      -0.61462839       0.00764467      -0.04609678       0.00057088      -0.00454805      -0.00871760      -0.00644129
Cl       1.02608857      -3.54011703       0.50245883      -0.00303207       0.00327824       0.00000605       0.00520298      -0.00107886       0.01049684
H        0.06757837      -1.25560286      -0.84881666       0.02531842       0.02018914       0.01193200       0.00566726      -0.00495988      -0.00582668
H       -0.29815065      -0.78241293       0.81321383       0.02518310       0.02041626      -0.01261682      -0.00274586      -0.00914098      -0.00671815
H        1.51916302       0.94653260       0.72561423      -0.01807683      -0.00921250      -0.02739735      -0.01237368       0.00028509       0.00242900
H        1.85242927       0.50537262      -0.95446519      -0.01896744      -0.00939623       0.02743771      -0.00429364       0.00555019       0.00272904
O       -2.43694485       2.72173437       0.37105389       0.01788502       0.00752596       0.00024092       0.00141731      -0.00007609       0.00538528
H       -2.46035180       3.15721939      -0.48109633      -0.00005808      -0.00429745      -0.00004192       0.00648641       0.01264883       0.01522429
H       -1.95829561       1.90494337       0.23317159      -0.01992517       0.01473028      -0.00017627      -0.00358858      -0.00435838      -0.00719901
O       -0.14315858       3.40065617      -0.16603801      -0.00762941      -0.01045076       0.00072020       0.00664107      -0.00210864      -0.00469436
H       -0.25295386       3.46924799       0.78206058       0.00884785       0.01126170      -0.00104918      -0.00037542       0.00765819      -0.00554121
H       -0.22100539       2.47193324      -0.38530963       0.00793100       0.02846349       0.00013742       0.00171232      -0.00271836       0.00229736
O       -1.45308360      -5.58536708      -0.10064100       0.00087592      -0.00433965      -0.00013380      -0.00143566       0.00783020      -0.00030785
H       -0.83293281      -6.31323968      -0.09916511      -0.01595972      -0.00288001       0.00008316      -0.00898727       0.00113017      -0.00178991
H       -0.89612388      -4.81584136       0.07584980      -0.00237884      -0.01175777       0.00009761       0.00559608       0.00178802       0.00333471
O        4.11956074      -4.31110937      -0.14667782       0.00214457       0.00063924      -0.00006669       0.00360964      -0.00078202      -0.00233624
H        3.92746603      -5.23692689      -0.00462667       0.01577206       0.00171354      -0.00000083       0.00714368      -0.00131483      -0.00028383
H        3.26901392      -3.87832370       0.00656458       0.00634992      -0.00819253       0.00007960       0.00335196      -0.00278202       0.00150411
21
Lattice="1.0 0.0 0.0 0.0 1.0 0.0 0.0 0.0 1.0" Properties=species:S:1:pos:R:3:mp2_forces:R:3:forces:R:3 mp2_energy=-25669.004809123442 energy=-25674.435934401336 free_energy=-25674.435934401336 stress="3.453098138030275e-11 2.541693468786608e-09 1.7111751946905063e-09 2.541693468786608e-09 2.188386691216957e-09 -1.0061396821407385e-09 1.7111751946905063e-09 -1.0061396821407385e-09 8.414572195739163e-10" pbc="F F F"
C        0.10693919      -0.44245259      -0.12876284       0.02520861      -0.02838867       0.00005940      -0.00113746      -0.00651649      -0.00468357
C        1.49617215       0.11240972      -0.00406230      -0.03334038      -0.00005276       0.00015753      -0.00503568       0.00164230       0.00078121
H        2.16069132      -0.68882752       0.31864939      -0.02379320       0.02684727      -0.00003962      -0.00157874       0.00601445       0.00425368
F       -0.74020822       0.61218643      -0.61488290       0.00764467      -0.04609678       0.00057088      -0.00508442      -0.01021593      -0.00574108
Cl       1.03615056      -3.54393846       0.52203302      -0.00303207       0.00327824       0.00000605       0.00463868      -0.00104436       0.00680855
H        0.03999311      -1.25863645      -0.83753820       0.02531842       0.02018914       0.01193200       0.00650454      -0.00574379      -0.00625632
H       -0.30889609      -0.76560767       0.82283237       0.02518310       0.02041626      -0.01261682      -0.00216983      -0.01103098      -0.00671457
H        1.53215337       0.92963210       0.71848141      -0.01807683      -0.00921250      -0.02739735      -0.01311513       0.00229568       0.00031375
H        1.84055122       0.49150339      -0.96734644      -0.01896744      -0.00939623       0.02743771      -0.00341198       0.00308307       0.00196405
O       -2.43622393       2.72781707       0.36899326       0.01788502       0.00752596       0.00024092       0.00122772      -0.00017680       0.00478167
H       -2.45742825       3.16822385      -0.48065915      -0.00005808      -0.00429745      -0.00004192       0.00471008       0.01259627       0.01505754
H       -1.96485774       1.90770448       0.22587714      -0.01992517       0.01473028      -0.00017627       0.00127592      -0.00175843      -0.00756886
O       -0.14312047       3.40655554      -0.15593971      -0.00762941      -0.01045076       0.00072020       0.00698264      -0.00495690      -0.00540075
H       -0.24897641       3.45525896       0.79379378       0.00884785       0.01126170      -0.00104918      -0.00042032       0.00958527      -0.00506343
H       -0.21707790       2.48169258      -0.39174549       0.00793100       0.02846349       0.00013742      -0.00016583      -0.00560353       0.00608721
O       -1.45650547      -5.56884239      -0.11038819       0.00087592      -0.00433965      -0.00013380      -0.00129262       0.00696576       0.00031967
H       -0.85574863      -6.31278317      -0.10930747      -0.01595972      -0.00288001       0.00008316      -0.00567017       0.00321791      -0.00121896
H       -0.88295324      -4.81350581       0.07476367      -0.00237884      -0.01175777       0.00009761       0.00276621       0.00316849       0.00274974
O        4.13659960      -4.30071258      -0.13987352       0.00214457       0.00063924      -0.00006669       0.00337399      -0.00064996      -0.00146387
H        3.96954356      -5.23218936      -0.00328965       0.01577206       0.00171354      -0.00000083       0.00360621      -0.00052419       0.00025485
H        3.27740859      -3.88774408       0.02070775       0.00634992      -0.00819253       0.00007960       0.00399618      -0.00034784       0.00073950
21
Lattice="1.0 0.0 0.0 0.0 1.0 0.0 0.0 0.0 1.0" Properties=species:S:1:pos:R:3:mp2_forces:R:3:forces:R:3 mp2_energy=-25669.004809123442 energy=-25674.435188406627 free_energy=-25674.435188406627 stress="1.2173222967347198e-09 2.5550700388620316e-09 -4.032212648346312e-10 2.5550700388620316e-09 6.641533002994356e-09 -2.100910394040433e-09 -4.032212648346312e-10 -2.100910394040433e-09 1.2007007772704046e-09" pbc="F F F"
C        0.09544627      -0.44228150      -0.12571690       0.02520861      -0.02838867       0.00005940      -0.00087582      -0.00696862      -0.00459983
C        1.49209692       0.09675390      -0.01474600      -0.03334038      -0.00005276       0.00015753      -0.00491143       0.00189529       0.00065540
H        2.15058865      -0.71302210       0.29906390      -0.02379320       0.02684727      -0.00003962      -0.00154492       0.00688691       0.00614266
F       -0.74289971       0.61790869      -0.61496709       0.00764467      -0.04609678       0.00057088      -0.00612409      -0.01110436      -0.00471207
Cl       1.04480676      -3.55036247       0.52929673      -0.00303207       0.00327824       0.00000605       0.00401548      -0.00124070       0.00459642
H        0.01402945      -1.26358757      -0.82712521       0.02531842       0.02018914       0.01193200       0.00707116      -0.00531960      -0.00728108
H       -0.31764249      -0.75202153       0.83169441       0.02518310       0.02041626      -0.01261682      -0.00179971      -0.01282570      -0.00700014
H        1.54465973       0.91199376       0.70913280      -0.01807683      -0.00921250      -0.02739735      -0.01255462       0.00391037      -0.00129317
H        1.83022045       0.47408951      -0.98095990      -0.01896744      -0.00939623       0.02743771      -0.00253305       0.00106887       0.00125210
O       -2.43478329       2.73253763       0.36888752       0.01788502       0.00752596       0.00024092       0.00160437      -0.00046536       0.00341647
H       -2.44881321       3.17632214      -0.47912367      -0.00005808      -0.00429745      -0.00004192      -0.00621441       0.01140015       0.01214032
H       -1.97697639       1.90537074       0.22290755      -0.01992517       0.01473028      -0.00017627       0.01463574       0.00648890      -0.00996730
O       -0.14022950       3.40668075      -0.14569693      -0.00762941      -0.01045076       0.00072020       0.00794657      -0.00864581      -0.00434910
H       -0.24351539       3.43327684       0.80514942       0.00884785       0.01126170      -0.00104918       0.00263548       0.00983794      -0.00320685
H       -0.21065387       2.48672047      -0.40038027       0.00793100       0.02846349       0.00013742      -0.00611942      -0.01025092       0.01170380
O       -1.46796974      -5.54929906      -0.11747525       0.00087592      -0.00433965      -0.00013380      -0.00138623       0.00632588       0.00083166
H       -0.88300523      -6.30570218      -0.11630862      -0.01595972      -0.00288001       0.00008316      -0.00338025       0.00390790      -0.00089098
H       -0.88057854      -4.80568366       0.07191062      -0.00237884      -0.01175777       0.00009761       0.00095989       0.00398324       0.00246925
O        4.15768668      -4.27976522      -0.12724452       0.00214457       0.00063924      -0.00006669       0.00322161      -0.00018995      -0.00087995
H        4.01184188      -5.21632133      -0.00149946       0.01577206       0.00171354      -0.00000083       0.00116146      -0.00015899       0.00065698
H        3.28989688      -3.88586380       0.03553682       0.00634992      -0.00819253       0.00007960       0.00419220       0.00146457       0.00031540
21
Lattice="1.0 0.0 0.0 0.0 1.0 0.0 0.0 0.0 1.0" Properties=species:S:1:pos:R:3:mp2_forces:R:3:forces:R:3 mp2_energy=-25669.004809123442 energy=-25674.432526248595 free_energy=-25674.432526248595 stress="-1.4429146810446924e-09 9.687655232709795e-10 1.1899330210106708e-09 9.687655232709795e-10 -3.964105287659021e-09 2.8169350598897516e-10 1.1899330210106708e-09 2.8169350598897516e-10 2.1928710380037532e-10" pbc="F F F"
C        0.10003748      -0.42810326      -0.11686848       0.02520861      -0.02838867       0.00005940      -0.00103776      -0.00374656      -0.00401239
C        1.49163300       0.12382039      -0.00493810      -0.03334038      -0.00005276       0.00015753      -0.00461601       0.00369552       0.00131268
H        2.15619799      -0.67657324       0.31934769      -0.02379320       0.02684727      -0.00003962      -0.00151476       0.00761978       0.00445829
F       -0.74876809       0.63040004      -0.59143705       0.00764467      -0.04609678       0.00057088      -0.00433048      -0.00781388      -0.00718089
Cl       1.03924896      -3.50638513       0.56825651      -0.00303207       0.00327824       0.00000605       0.00342207      -0.00216241       0.00793175
H        0.02415430      -1.24220123      -0.82720161       0.02531842       0.02018914       0.01193200       0.00639715      -0.00415859      -0.00425324
H       -0.30676742      -0.75301332       0.83779573       0.02518310       0.02041626      -0.01261682      -0.00278776      -0.00639180      -0.00566937
H        1.53279702       0.94568665       0.71219656      -0.01807683      -0.00921250      -0.02739735      -0.01195056       0.00416885       0.00100237
H        1.83051735       0.49578151      -0.97301929      -0.01896744      -0.00939623       0.02743771      -0.00281002       0.00525448       0.00259763
O       -2.45353243       2.76676262       0.34136014       0.01788502       0.00752596       0.00024092       0.00272667      -0.00332583       0.00762928
H       -2.45492415       3.18005686      -0.52203194      -0.00005808      -0.00429745      -0.00004192       0.00296889       0.01275795       0.01328954
H       -1.97783676       1.94375801       0.23418653      -0.01992517       0.01473028      -0.00017627      -0.00048217      -0.00135901      -0.00684807
O       -0.14883641       3.43335911      -0.14949556      -0.00762941      -0.01045076       0.00072020       0.00581291      -0.00389256      -0.00461682
H       -0.28036359       3.51776609       0.79459443       0.00884785       0.01126170      -0.00104918       0.00204514       0.00319665      -0.00566302
H       -0.22051245       2.50132231      -0.35578633       0.00793100       0.02846349       0.00013742      -0.00053180      -0.00440101       0.00013302
O       -1.34718392      -5.62241731      -0.12626004       0.00087592      -0.00433965      -0.00013380      -0.00237251       0.00751067       0.00000318
H       -0.68665474      -6.31381776      -0.11814889      -0.01595972      -0.00288001       0.00008316      -0.01096140      -0.00243869      -0.00271065
H       -0.83721494      -4.82729961       0.07620405      -0.00237884      -0.01175777       0.00009761       0.00820258       0.00113215       0.00320605
O        4.07319291      -4.41597855      -0.17619784       0.00214457       0.00063924      -0.00006669       0.00274850      -0.00048492      -0.00169691
H        3.85263505      -5.32899904       0.00260915       0.01577206       0.00171354      -0.00000083       0.00754646      -0.00168700      -0.00037839
H        3.24638715      -3.94618111      -0.00282972       0.00634992      -0.00819253       0.00007960       0.00152486      -0.00347378       0.00146595
21
Lattice="1.0 0.0 0.0 0.0 1.0 0.0 0.0 0.0 1.0" Properties=species:S:1:pos:R:3:mp2_forces:R:3:forces:R:3 mp2_energy=-25669.004809123442 energy=-25674.423413848577 free_energy=-25674.423413848577 stress="4.246172201637158e-09 5.053965156204931e-09 2.1735808263426408e-10 5.053965156204931e-09 -2.9618617941590646e-08 2.296718229198308e-09 2.1735808263426408e-10 2.296718229198308e-09 -6.475002895169455e-10" pbc="F F F"
C        0.10288170      -0.43671804      -0.11788844       0.02520861      -0.02838867       0.00005940      -0.00065426      -0.00066012      -0.00369636
C        1.49189557       0.12006091       0.00469900      -0.03334038      -0.00005276       0.00015753      -0.00437658       0.00694267       0.00121608
H        2.15352066      -0.67388697       0.34996124      -0.02379320       0.02684727      -0.00003962      -0.00040273       0.00988796       0.00034050
F       -0.74641344       0.62248272      -0.59039986       0.00764467      -0.04609678       0.00057088      -0.00441138      -0.00535010      -0.00736858
Cl       1.04640344      -3.47064495       0.57082075      -0.00303207       0.00327824       0.00000605      -0.00429457      -0.00666018       0.01280086
H        0.03325568      -1.24609864      -0.83411638       0.02531842       0.02018914       0.01193200       0.00686067      -0.00137429      -0.00354564
H       -0.30845095      -0.76812645       0.83233278       0.02518310       0.02041626      -0.01261682      -0.00216044      -0.00305490      -0.00519371
H        1.52058044       0.95235984       0.71028039      -0.01807683      -0.00921250      -0.02739735      -0.01041084       0.00481347       0.00376060
H        1.84316828       0.47821119      -0.96421038      -0.01896744      -0.00939623       0.02743771      -0.00443316       0.01212420       0.00319171
O       -2.45437866       2.76269034       0.33843025       0.01788502       0.00752596       0.00024092       0.00239737      -0.00314985       0.00684324
H       -2.44995182       3.15581936      -0.53434119      -0.00005808      -0.00429745      -0.00004192      -0.00048401       0.01462980       0.01236516
H       -1.97787656       1.93783252       0.25212073      -0.01992517       0.01473028      -0.00017627       0.00236190       0.00096993      -0.00966345
O       -0.14573944       3.42308024      -0.15602425      -0.00762941      -0.01045076       0.00072020       0.00388967      -0.00293620      -0.00401574
H       -0.28517364       3.52618937       0.78508560       0.00884785       0.01126170      -0.00104918       0.00370287      -0.00006332      -0.00407322
H       -0.21996569       2.48806069      -0.34739395       0.00793100       0.02846349       0.00013742      -0.00211361      -0.00256226      -0.00252047
O       -1.29499757      -5.66025736      -0.12595134       0.00087592      -0.00433965      -0.00013380      -0.00244414       0.01090352      -0.00051794
H       -0.50741175      -6.20290632      -0.10539874      -0.01595972      -0.00288001       0.00008316      -0.01985831      -0.01738656      -0.00645506
H       -0.94611863      -4.78444091       0.07409939      -0.00237884      -0.01175777       0.00009761       0.02913140      -0.00089609       0.00754182
O        4.04018983      -4.46426649      -0.18831156       0.00214457       0.00063924      -0.00006669      -0.00048690      -0.00000934      -0.00267623
H        3.73453256      -5.35304439      -0.01198803       0.01577206       0.00171354      -0.00000083       0.01488914      -0.00532447      -0.00241967
H        3.25425630      -3.92865263      -0.01947006       0.00634992      -0.00819253       0.00007960      -0.00670209      -0.01084386       0.00408610
21
Lattice="1.0 0.0 0.0 0.0 1.0 0.0 0.0 0.0 1.0" Properties=species:S:1:pos:R:3:mp2_forces:R:3:forces:R:3 mp2_energy=-25669.004809123442 energy=-25674.41711371013 free_energy=-25674.41711371013 stress="5.351225190003494e-09 6.803391349422909e-09 5.582233263254531e-10 6.803391349422909e-09 -3.088377889316576e-08 2.4319001232811608e-09 5.582233263254531e-10 2.4319001232811608e-09 -6.730048842621398e-10" pbc="F F F"
C        0.10430043      -0.44015586      -0.11618205       0.02520861      -0.02838867       0.00005940      -0.00035511      -0.00045832      -0.00341564
C        1.49227439       0.11979439       0.00569024      -0.03334038      -0.00005276       0.00015753      -0.00421206       0.00745008       0.00134728
H        2.15520543      -0.67184869       0.35374003      -0.02379320       0.02684727      -0.00003962       0.00000960       0.01045198       0.00014521
F       -0.74683307       0.61778455      -0.58868495       0.00764467      -0.04609678       0.00057088      -0.00433485      -0.00541267      -0.00721846
Cl       1.07041946      -3.45232660       0.58137297      -0.00303207       0.00327824       0.00000605      -0.00617288      -0.00700992       0.01348902
H        0.03582387      -1.24955150      -0.83252599       0.02531842       0.02018914       0.01193200       0.00732431      -0.00120685      -0.00323155
H       -0.30633727      -0.77172673       0.83419478       0.02518310       0.02041626      -0.01261682      -0.00177979      -0.00277513      -0.00485716
H        1.51849428       0.95421157       0.70888010      -0.01807683      -0.00921250      -0.02739735      -0.01024729       0.00515924       0.00404956
H        1.84328296       0.47583384      -0.96414060      -0.01896744      -0.00939623       0.02743771      -0.00460463       0.01292018       0.00331156
O       -2.45444418       2.76072036       0.33792431       0.01788502       0.00752596       0.00024092       0.00218966      -0.00301520       0.00656577
H       -2.44866343       3.15083185      -0.53620178      -0.00005808      -0.00429745      -0.00004192      -0.00092557       0.01459732       0.01253050
H       -1.97804935       1.93547103       0.25502252      -0.01992517       0.01473028      -0.00017627       0.00275535       0.00080469      -0.01012104
O       -0.14448287       3.41848503      -0.15688832      -0.00762941      -0.01045076       0.00072020       0.00369130      -0.00314778      -0.00406698
H       -0.28512010       3.52412720       0.78376925       0.00884785       0.01126170      -0.00104918       0.00396724      -0.00047647      -0.00405146
H       -0.22031996       2.48320979      -0.34643629       0.00793100       0.02846349       0.00013742      -0.00232512      -0.00275692      -0.00268477
O       -1.28636586      -5.69298185      -0.13339316       0.00087592      -0.00433965      -0.00013380      -0.00186986       0.00802216      -0.00165799
H       -0.44236226      -6.14196047      -0.09040038      -0.01595972      -0.00288001       0.00008316      -0.01314387      -0.01460505      -0.00459853
H       -1.04691578      -4.78104275       0.05736186      -0.00237884      -0.01175777       0.00009761       0.02317689       0.00096256       0.00677820
O        4.04156239      -4.47973250      -0.19486956       0.00214457       0.00063924      -0.00006669      -0.00073817      -0.00128542      -0.00360238
H        3.71243976      -5.35807191      -0.00866198       0.01577206       0.00171354      -0.00000083       0.01437027      -0.00664645      -0.00199583
H        3.27029745      -3.92332672      -0.02723508       0.00634992      -0.00819253       0.00007960      -0.00677541      -0.01157202       0.00328467
21
Lattice="1.0 0.0 0.0 0.0 1.0 0.0 0.0 0.0 1.0" Properties=species:S:1:pos:R:3:mp2_forces:R:3:forces:R:3 mp2_energy=-25669.004809123442 energy=-25674.415360595987 free_energy=-25674.415360595987 stress="-6.801161577921009e-10 5.991044985543611e-09 1.93607590436274e-10 5.991044985543611e-09 -3.034497980870975e-08 1.9251506311133845e-09 1.93607590436274e-10 1.9251506311133845e-09 -1.036751285281526e-09" pbc="F F F"
C        0.10542545      -0.44130679      -0.11525375       0.02520861      -0.02838867       0.00005940      -0.00005470      -0.00059520      -0.00313375