9
Lattice="1.0 0.0 0.0 0.0 1.0 0.0 0.0 0.0 1.0" Properties=species:S:1:pos:R:3:forces:R:3 R1=H R2=H R3=CH3 R4=CH3 leaving_group=Cl nucleophile=Cl rxn=sn2 config=rcc label=H_H_CH3_CH3_Cl_Cl_sn2_rcc conformation=0 reactant_id=H_H_CH3_CH3_Cl_none_-_r product_id=H_H_CH3_CH3_none_Cl_sn2_pc mp2_author_energy=-29302.391748605172 mp2_my_energy=0 hash=59123 address=T id=71 energy=-17372.33216497299 free_energy=-17372.33216497299 cell="(1,0,0), (0,1,0), (0,0,1)" pbc="F F F"
C        0.09142836      -0.02057665       0.00018700      -0.00383810       0.00153641      -0.00068481
C        1.58722280       0.14924827      -0.00111085       0.00020147      -0.00237977      -0.00061630
H        2.03195864      -0.84661872      -0.00635447      -0.00043287       0.00066109       0.00360198
F       -0.53491861       1.24651010      -0.01033438       0.00123778      -0.00105707       0.00337249
Cl       0.88543890      -3.39675651       0.00603569      -0.00050197      -0.00038193      -0.00016305
H       -0.24798218      -0.56713807      -0.87777751      -0.00113173       0.00148985       0.00279851
H       -0.24989953      -0.55273097       0.88632969       0.00349898      -0.00246302      -0.00540624
H        1.91405155       0.69490750       0.88785996      -0.00213133       0.00382493      -0.00088743
H        1.90859158       0.70242064      -0.88742268       0.00309776      -0.00123049      -0.00201515
9
Lattice="1.0 0.0 0.0 0.0 1.0 0.0 0.0 0.0 1.0" Properties=species:S:1:pos:R:3:forces:R:3 R1=H R2=H R3=CH3 R4=CH3 leaving_group=Cl nucleophile=Cl rxn=sn2 config=rcc label=H_H_CH3_CH3_Cl_Cl_sn2_rcc conformation=0 reactant_id=H_H_CH3_CH3_Cl_none_-_r product_id=H_H_CH3_CH3_none_Cl_sn2_pc mp2_author_energy=-29302.391748605172 mp2_my_energy=0 hash=59123 address=T id=71 energy=-17372.33130699789 free_energy=-17372.33130699789 cell="(1,0,0), (0,1,0), (0,0,1)" stress="-2.613773825237699e-10 1.074714998805351e-08 -3.120996423856733e-10 1.074714998805351e-08 -1.724008465041586e-09 7.178538573876653e-09 -3.120996423856733e-10 7.178538573876653e-09 1.0376292851020252e-10" pbc="F F F"
C        0.09632918      -0.02577588       0.01703336      -0.00090325       0.00119964      -0.00084967
C        1.59059920       0.15629901       0.00996471      -0.00060964      -0.00112587      -0.00061092
H        2.04346901      -0.83410583       0.06909286      -0.00230750      -0.00236913      -0.00583568
F       -0.54123750       1.23437482      -0.04207276       0.00100814       0.00225458       0.00013394
Cl       0.85447507      -3.39963948      -0.09526291       0.00581441      -0.00064366       0.00560522
H       -0.23761395      -0.61002900      -0.83781507      -0.00181186       0.00243404      -0.00147943
H       -0.24090708      -0.52569800       0.92334853      -0.00164713       0.00098220      -0.00117427
H        1.90829592       0.76183115       0.86284096       0.00090884      -0.00604611       0.00253910
H        1.91248166       0.65200878      -0.90971725      -0.00045201       0.00331431       0.00167170
9
Lattice="1.0 0.0 0.0 0.0 1.0 0.0 0.0 0.0 1.0" Properties=species:S:1:pos:R:3:forces:R:3 R1=H R2=H R3=CH3 R4=CH3 leaving_group=Cl nucleophile=Cl rxn=sn2 config=rcc label=H_H_CH3_CH3_Cl_Cl_sn2_rcc conformation=0 reactant_id=H_H_CH3_CH3_Cl_none_-_r product_id=H_H_CH3_CH3_none_Cl_sn2_pc mp2_author_energy=-29302.391748605172 mp2_my_energy=0 hash=59123 address=T id=71 energy=-17372.327741637742 free_energy=-17372.327741637742 cell="(1,0,0), (0,1,0), (0,0,1)" stress="3.414433679927188e-10 2.179623564903253e-08 -2.1968267550476736e-10 2.179623564903253e-08 -1.347538916774858e-08 1.1446303165485021e-08 -2.1968267550476736e-10 1.1446303165485021e-08 4.765501689959052e-10" pbc="F F F"
C        0.10302788      -0.03344692       0.03492286      -0.00183059       0.00289946      -0.00102327
C        1.59508019       0.16567911       0.02154290      -0.00122613      -0.00185680      -0.00088120
H        2.06164283      -0.81230732       0.14657911      -0.00449307      -0.00548263      -0.01382708
F       -0.54869043       1.21619366      -0.07536672       0.00217744       0.00463180      -0.00418666
Cl       0.81090100      -3.40475015      -0.20063769       0.01181416      -0.00526930       0.00867507
H       -0.22230086      -0.65668786      -0.79446614      -0.00345078       0.00213161       0.00005649
H       -0.23055236      -0.49891147       0.96069774      -0.00352602       0.00637470       0.00015421
H        1.90116797       0.83169721       0.83247750       0.00268019      -0.01298488       0.00738789
H        1.91561530       0.60179935      -0.92833713      -0.00214520       0.00955604       0.00364455
9
Lattice="1.0 0.0 0.0 0.0 1.0 0.0 0.0 0.0 1.0" Properties=species:S:1:pos:R:3:forces:R:3 R1=H R2=H R3=CH3 R4=CH3 leaving_group=Cl nucleophile=Cl rxn=sn2 config=rcc label=H_H_CH3_CH3_Cl_Cl_sn2_rcc conformation=0 reactant_id=H_H_CH3_CH3_Cl_none_-_r product_id=H_H_CH3_CH3_none_Cl_sn2_pc mp2_author_energy=-29302.391748605172 mp2_my_energy=0 hash=59123 address=T id=71 energy=-17372.321664689283 free_energy=-17372.321664689283 cell="(1,0,0), (0,1,0), (0,0,1)" stress="4.225363193955437e-09 2.0415382129902472e-08 -1.3416900696099573e-09 2.0415382129902472e-08 -2.7690382316709892e-08 1.3987472034570963e-08 -1.3416900696099573e-09 1.3987472034570963e-08 5.678432314643638e-11" pbc="F F F"
C        0.11095977      -0.04500128       0.04818571      -0.00155982       0.00335925      -0.00070968
C        1.60035797       0.17439957       0.03021340      -0.00123700      -0.00119886      -0.00076753
H        2.08200083      -0.78491879       0.22522771      -0.00410549      -0.00845465      -0.02534248
F       -0.55796834       1.19371182      -0.08528249       0.00304502       0.00405245      -0.01460780
Cl       0.75933965      -3.38944462      -0.28422500       0.01111687      -0.01059950       0.00975607
H       -0.20553083      -0.68959070      -0.76745705      -0.00182275      -0.00413166       0.00537112
H       -0.21696620      -0.49713883       0.98234413      -0.00401743       0.01480259       0.00404453
H        1.89025538       0.90054367       0.79403307       0.00427379      -0.02013719       0.01633190
H        1.92344329       0.54670475      -0.94562705      -0.00569319       0.02230757       0.00592387
9
Lattice="1.0 0.0 0.0 0.0 1.0 0.0 0.0 0.0 1.0" Properties=species:S:1:pos:R:3:forces:R:3 R1=H R2=H R3=CH3 R4=CH3 leaving_group=Cl nucleophile=Cl rxn=sn2 config=rcc label=H_H_CH3_CH3_Cl_Cl_sn2_rcc conformation=0 reactant_id=H_H_CH3_CH3_Cl_none_-_r product_id=H_H_CH3_CH3_none_Cl_sn2_pc mp2_author_energy=-29302.391748605172 mp2_my_energy=0 hash=59123 address=T id=71 energy=-17372.313055391896 free_energy=-17372.313055391896 cell="(1,0,0), (0,1,0), (0,0,1)" stress="1.2631575208014441e-08 1.0644132468541028e-08 -3.826082100471954e-09 1.0644132468541028e-08 -3.789362211265441e-08 1.8257534753939355e-08 -3.826082100471954e-09 1.8257534753939355e-08 -1.4377158392845543e-09" pbc="F F F"
C        0.11608173      -0.05459154       0.05471846      -0.00027734       0.00256311      -0.00050038
C        1.60414309       0.17886282       0.03469088      -0.00099890       0.00005368      -0.00059287
H        2.09536688      -0.76047585       0.29362179      -0.00253533      -0.01287485      -0.03855008
F       -0.56624097       1.17858818      -0.06820024       0.00444440       0.00212258      -0.02751218
Cl       0.72416042      -3.36413973      -0.33247576       0.00594219      -0.01351652       0.01148340
H       -0.19685902      -0.69709080      -0.76367125       0.00236072      -0.01376793       0.01124047
H       -0.20626094      -0.51736066       0.98534285      -0.00315484       0.02287104       0.00902975
H        1.87990492       0.95522950       0.75283852       0.00432575      -0.02653304       0.02851674
H        1.93559542       0.49024367      -0.95945280      -0.01010663       0.03908194       0.00688515
9
Lattice="1.0 0.0 0.0 0.0 1.0 0.0 0.0 0.0 1.0" Properties=species:S:1:pos:R:3:forces:R:3 R1=H R2=H R3=CH3 R4=CH3 leaving_group=Cl nucleophile=Cl rxn=sn2 config=rcc label=H_H_CH3_CH3_Cl_Cl_sn2_rcc conformation=0 reactant_id=H_H_CH3_CH3_Cl_none_-_r product_id=H_H_CH3_CH3_none_Cl_sn2_pc mp2_author_energy=-29302.391748605172 mp2_my_energy=0 hash=59123 address=T id=71 energy=-17372.297579093112 free_energy=-17372.297579093112 cell="(1,0,0), (0,1,0), (0,0,1)" stress="2.5180619224903252e-08 -8.339809922709749e-10 -6.433799224804535e-09 -8.339809922709749e-10 -6.199927912835522e-08 2.2251817976662698e-08 -6.433799224804535e-09 2.2251817976662698e-08 -4.3153839226236595e-09" pbc="F F F"
C        0.11813812      -0.06143275       0.05879575       0.00134060       0.00212468      -0.00006862
C        1.60686258       0.18015400       0.03753739      -0.00097905       0.00197816      -0.00044700
H        2.10358361      -0.73281260       0.37050432      -0.00130550      -0.02036897      -0.05215938
F       -0.57538694       1.16962281      -0.02907863       0.00663623       0.00187225      -0.04204921
Cl       0.70402961      -3.33621852      -0.37023139       0.00000159      -0.02057538       0.01300065
H       -0.19708758      -0.68450644      -0.77356527       0.00745566      -0.02478485       0.01697751
H       -0.19873225      -0.55117565       0.97702036      -0.00152980       0.03164201       0.01589463
H        1.87104729       1.00940259       0.69835295       0.00287386      -0.03073034       0.04401539
H        1.95343708       0.41623215      -0.97192304      -0.01449360       0.05884245       0.00483603
9
Lattice="1.0 0.0 0.0 0.0 1.0 0.0 0.0 0.0 1.0" Properties=species:S:1:pos:R:3:forces:R:3 R1=H R2=H R3=CH3 R4=CH3 leaving_group=Cl nucleophile=Cl rxn=sn2 config=rcc label=H_H_CH3_CH3_Cl_Cl_sn2_rcc conformation=0 reactant_id=H_H_CH3_CH3_Cl_none_-_r product_id=H_H_CH3_CH3_none_Cl_sn2_pc mp2_author_energy=-29302.391748605172 mp2_my_energy=0 hash=59123 address=T id=71 energy=-17372.267409835258 free_energy=-17372.267409835258 cell="(1,0,0), (0,1,0), (0,0,1)" stress="3.438437109200915e-08 -1.4550051748449407e-08 -8.236748211680224e-09 -1.4550051748449407e-08 -1.2710038059178806e-07 1.821354455381758e-08 -8.236748211680224e-09 1.821354455381758e-08 -7.388202657960487e-09" pbc="F F F"
C        0.11673447      -0.06667085       0.06122736       0.00272433       0.00373089       0.00098649
C        1.60923509       0.17748877       0.03960484      -0.00097941       0.00613888      -0.00030463
H        2.10842157      -0.69222165       0.47111930      -0.00074039      -0.02803068      -0.05953178
F       -0.58797629       1.16328264       0.04050387       0.00707086       0.00515708      -0.05362844
Cl       0.69786837      -3.29739196      -0.40626635      -0.00643060      -0.04228510       0.01074439
H       -0.20811467      -0.64758825      -0.79749904       0.01186966      -0.03321455       0.02078416
H       -0.19471556      -0.60365896       0.95389601       0.00082533       0.03949026       0.02397869
H        1.86478926       1.06994073       0.61547485       0.00134841      -0.02714864       0.05843405
H        1.97964928       0.30608512      -0.98064840      -0.01568819       0.07616187      -0.00146292
9
Lattice="1.0 0.0 0.0 0.0 1.0 0.0 0.0 0.0 1.0" Properties=species:S:1:pos:R:3:forces:R:3 R1=H R2=H R3=CH3 R4=CH3 leaving_group=Cl nucleophile=Cl rxn=sn2 config=rcc label=H_H_CH3_CH3_Cl_Cl_sn2_rcc conformation=0 reactant_id=H_H_CH3_CH3_Cl_none_-_r product_id=H_H_CH3_CH3_none_Cl_sn2_pc mp2_author_energy=-29302.391748605172 mp2_my_energy=0 hash=59123 address=T id=71 energy=-17372.22353526416 free_energy=-17372.22353526416 cell="(1,0,0), (0,1,0), (0,0,1)" stress="2.8729623933688443e-08 -2.946837323378863e-08 -8.447052223795031e-09 -2.946837323378863e-08 -2.7190556842051434e-07 -1.0265098315432262e-08 -8.447052223795031e-09 -1.0265098315432262e-08 -1.0841657906495817e-08" pbc="F F F"
C        0.11228942      -0.07353841       0.06105655       0.00285577       0.00995788       0.00303668
C        1.61129744       0.16727321       0.04102780      -0.00064338       0.01545833       0.00081156
H        2.11103959      -0.63844259       0.58318560      -0.00525730      -0.02522287      -0.04810610
F       -0.60090274       1.15335166       0.13374111       0.00090322       0.01167629      -0.05102662
Cl       0.70644782      -3.22458579      -0.43456034      -0.01049688      -0.09259300      -0.00255438
H       -0.22843927      -0.59159955      -0.83101483       0.01387583      -0.02934470       0.01969399
H       -0.19562123      -0.67148637       0.91445038       0.00326914       0.04301037       0.02861072
H        1.86171529       1.12245066       0.50720032       0.00829881      -0.00969412       0.05721282
H        2.00806519       0.16584277      -0.97767414      -0.01280522       0.07675183      -0.00767866
9
Lattice="1.0 0.0 0.0 0.0 1.0 0.0 0.0 0.0 1.0" Properties=species:S:1:pos:R:3:forces:R:3 R1=H R2=H R3=CH3 R4=CH3 leaving_group=Cl nucleophile=Cl rxn=sn2 config=rcc label=H_H_CH3_CH3_Cl_Cl_sn2_rcc conformation=0 reactant_id=H_H_CH3_CH3_Cl_none_-_r product_id=H_H_CH3_CH3_none_Cl_sn2_pc mp2_author_energy=-29302.391748605172 mp2_my_energy=0 hash=59123 address=T id=71 energy=-17372.17148841696 free_energy=-17372.17148841696 cell="(1,0,0), (0,1,0), (0,0,1)" stress="5.448383322058422e-08 -5.1732161150684036e-08 -1.1186449498974047e-08 -5.1732161150684036e-08 -4.556916054608309e-07 -6.093414110121306e-08 -1.1186449498974047e-08 -6.093414110121306e-08 8.245529020510253e-09" pbc="F F F"
C        0.10724803      -0.09100325       0.05705287      -0.00334993       0.03596336       0.00860889
C        1.61276040       0.14029333       0.04052379      -0.00909060       0.04142593       0.00675605
H        2.12130087      -0.58620713       0.67906051      -0.05664127      -0.01749097      -0.02047148
F       -0.60314983       1.13231843       0.22751798      -0.02112141       0.01465593      -0.02752861
Cl       0.72358341      -3.06351616      -0.43994228       0.00672819      -0.13887296      -0.02063935
H       -0.25358010      -0.53818933      -0.86487276       0.02710711      -0.02328501       0.02177534
H       -0.20106019      -0.74857483       0.86442994       0.01441157       0.02224873       0.00497646
H        1.84632158       1.14522179       0.39593732       0.08089670       0.02291158       0.03072282
H        2.03246733       0.01892274      -0.96229492      -0.03894035       0.04244341      -0.00420012
9
Lattice="1.0 0.0 0.0 0.0 1.0 0.0 0.0 0.0 1.0" Properties=species:S:1:pos:R:3:forces:R:3 R1=H R2=H R3=CH3 R4=CH3 leaving_group=Cl nucleophile=Cl rxn=sn2 config=rcc label=H_H_CH3_CH3_Cl_Cl_sn2_rcc conformation=0 reactant_id=H_H_CH3_CH3_Cl_none_-_r product_id=H_H_CH3_CH3_none_Cl_sn2_pc mp2_author_energy=-29302.391748605172 mp2_my_energy=0 hash=59123 address=T id=71 energy=-17372.040862569957 free_energy=-17372.040862569957 cell="(1,0,0), (0,1,0), (0,0,1)" stress="6.961126051630877e-07 -5.180102192053782e-07 -9.551352117947469e-08 -5.180102192053782e-07 -1.6538126590237097e-06 -3.1641766783431054e-07 -9.551352117947469e-08 -3.1641766783431054e-07 3.0763081819507196e-07" pbc="F F F"
C        0.11160624      -0.13684230       0.04717355      -0.26551372       0.55027086       0.10449361
C        1.62470655       0.08780620       0.03277196      -0.14510616       0.20912440       0.03881057
H        2.19394493      -0.55582761       0.71477987      -0.35001613      -0.04507578      -0.02891862
F       -0.57677054       1.11319903       0.26725071       0.10730367      -0.08986607      -0.03385418
Cl       0.71406327      -2.88959981      -0.42252442       0.10760810      -0.41379900      -0.07322708
H       -0.28868537      -0.50558221      -0.89254301       0.13898304      -0.23049918       0.12595645
H       -0.21921474      -0.77827389       0.85818266       0.10782984      -0.16272580      -0.18787310
H        1.74240634       1.12022225       0.34646552       0.52959129       0.19039960       0.02727958
H        2.08383484      -0.04583607      -0.95414438      -0.23067994      -0.00782903       0.02733276
9
Lattice="1.0 0.0 0.0 0.0 1.0 0.0 0.0 0.0 1.0" Properties=species:S:1:pos:R:3:forces:R:3 R1=H R2=H R3=CH3 R4=CH3 leaving_group=Cl nucleophile=Cl rxn=sn2 config=rcc label=H_H_CH3_CH3_Cl_Cl_sn2_rcc conformation=0 reactant_id=H_H_CH3_CH3_Cl_none_-_r product_id=H_H_CH3_CH3_none_Cl_sn2_pc mp2_author_energy=-29302.391748605172 mp2_my_energy=0 hash=59123 address=T id=71 energy=-17371.64504930497 free_energy=-17371.64504930497 cell="(1,0,0), (0,1,0), (0,0,1)" stress="1.5540231686725675e-06 -1.5760470269373666e-06 -3.0683259119017386e-07 -1.5760470269373666e-06 -1.932875103857157e-06 -3.9580819860758104e-07 -3.0683259119017386e-07 -3.9580819860758104e-07 4.5656365006511244e-07" pbc="F F F"
C        0.15309363      -0.22277712       0.03117793      -1.25891398       2.52629033       0.44459418
C        1.64735587       0.05516464       0.02671005      -0.30015002       0.28421339       0.05959056
H        2.24841835      -0.54786917       0.72039330      -0.39796800      -0.07152392      -0.06100049
F       -0.59362837       1.12708009       0.27329431       0.76659785      -0.93941082      -0.18715962
Cl       0.69717510      -2.82492160      -0.41200619       0.16619496      -0.78301817      -0.13792377
H       -0.31043218      -0.46922065      -0.91226798       0.27692221      -0.66051094       0.08542664
H       -0.23595714      -0.75321363       0.88734290       0.25218432      -0.57251952      -0.29811132
H        1.65973267       1.09099267       0.34081606       0.74251191       0.27580221       0.04364706
H        2.12013357      -0.04596964      -0.95804793      -0.24737925      -0.05932257       0.05093676
9
Lattice="1.0 0.0 0.0 0.0 1.0 0.0 0.0 0.0 1.0" Properties=species:S:1:pos:R:3:forces:R:3 R1=H R2=H R3=CH3 R4=CH3 leaving_group=Cl nucleophile=Cl rxn=sn2 config=rcc label=H_H_CH3_CH3_Cl_Cl_sn2_rcc conformation=0 reactant_id=H_H_CH3_CH3_Cl_none_-_r product_id=H_H_CH3_CH3_none_Cl_sn2_pc mp2_author_energy=-29302.391748605172 mp2_my_energy=0 hash=59123 address=T id=71 energy=-17371.054916870984 free_energy=-17371.054916870984 cell="(1,0,0), (0,1,0), (0,0,1)" stress="1.1089878051057796e-06 -1.6085665977283314e-06 -3.187376988682975e-07 -1.6085665977283314e-06 -1.7875520945130785e-06 -2.8513875076479165e-07 -3.187376988682975e-07 -2.8513875076479165e-07 -6.129825514748678e-08" pbc="F F F"
C        0.20770951      -0.33239821       0.01166258      -1.25464316       2.90349582       0.51105076
C        1.66040701       0.04284921       0.02420849      -0.16495225       0.22624276       0.04699987
H        2.26562648      -0.54450151       0.72329896      -0.24525424      -0.07185181      -0.03517898
F       -0.62694150       1.16781138       0.28164808       0.77319396      -1.04136561      -0.19535725
Cl       0.68993520      -2.79092064      -0.40626413       0.18115954      -0.97235970      -0.17093625
H       -0.32240353      -0.44041330      -0.91583520       0.15194899      -0.60833978      -0.14259699
H       -0.24691330      -0.72850996       0.90036983       0.14983750      -0.59474663      -0.06762737
H        1.62748338       1.07910513       0.33852310       0.55428717       0.21911541       0.02918931
H        2.13098825      -0.04375650      -0.96019926      -0.14557752      -0.06019047       0.02445690
9
Lattice="1.0 0.0 0.0 0.0 1.0 0.0 0.0 0.0 1.0" Properties=species:S:1:pos:R:3:forces:R:3 R1=H R2=H R3=CH3 R4=CH3 leaving_group=Cl nucleophile=Cl rxn=sn2 config=rcc label=H_H_CH3_CH3_Cl_Cl_sn2_rcc conformation=0 reactant_id=H_H_CH3_CH3_Cl_none_-_r product_id=H_H_CH3_CH3_none_Cl_sn2_pc mp2_author_energy=-29302.391748605172 mp2_my_energy=0 hash=59123 address=T id=71 energy=-17370.70892323077 free_energy=-17370.70892323077 cell="(1,0,0), (0,1,0), (0,0,1)" stress="5.740947984479039e-07 -1.1748402971016758e-06 -2.363133106097354e-07 -1.1748402971016758e-06 -1.7383631149255508e-06 -2.422943514994368e-07 -2.363133106097354e-07 -2.422943514994368e-07 -2.9785788968872e-07" pbc="F F F"
C        0.24219972      -0.41217287      -0.00224335      -0.80483626       2.13860464       0.37044752
C        1.66493826       0.03663087       0.02288062      -0.05864776       0.18996393       0.03792622
H        2.27232048      -0.54237771       0.72444460      -0.16196026      -0.04977244      -0.01537887
F       -0.64821181       1.19639736       0.28715585       0.51880704      -0.74054286      -0.13556770
Cl       0.68494192      -2.76420308      -0.40172051       0.16361143      -0.92643402      -0.16334410
H       -0.32660923      -0.42363680      -0.91195750       0.02219703      -0.36019350      -0.19282284
H       -0.25099259      -0.71221200       0.90217732       0.02824959      -0.38768707       0.06705921
H        1.61224200       1.07316205       0.33748320       0.39006756       0.17786748       0.02059226
H        2.13506275      -0.04232223      -0.96080778      -0.09748835      -0.04180616       0.01108829
9
Lattice="1.0 0.0 0.0 0.0 1.0 0.0 0.0 0.0 1.0" Properties=species:S:1:pos:R:3:forces:R:3 R1=H R2=H R3=CH3 R4=CH3 leaving_group=Cl nucleophile=Cl rxn=sn2 config=rcc label=H_H_CH3_CH3_Cl_Cl_sn2_rcc conformation=0 reactant_id=H_H_CH3_CH3_Cl_none_-_r product_id=H_H_CH3_CH3_none_Cl_sn2_pc mp2_author_energy=-29302.391748605172 mp2_my_energy=0 hash=59123 address=T id=71 energy=-17370.525680915103 free_energy=-17370.525680915103 cell="(1,0,0), (0,1,0), (0,0,1)" stress="2.3009818907396268e-07 -7.041572900099868e-07 -1.438146587067342e-07 -7.041572900099868e-07 -1.4882911980661675e-06 -2.0696799965919354e-07 -1.438146587067342e-07 -2.0696799965919354e-07 -3.019938851391535e-07" pbc="F F F"
C        0.26590871      -0.47515457      -0.01314125      -0.41167590       1.28502216       0.22036950
C        1.66667490       0.03103559       0.02176103      -0.01238898       0.14654730       0.02757395
H        2.27703992      -0.54074561       0.72508102      -0.10586774      -0.02866124      -0.00558325
F       -0.66352508       1.21818488       0.29130503       0.28377145      -0.42758601      -0.07572792
Cl       0.68010560      -2.73691501      -0.39707052       0.12186404      -0.72142976      -0.12820997
H       -0.32726610      -0.41295362      -0.90625919      -0.03682818      -0.16348112      -0.15410681
H       -0.25180348      -0.70085595       0.90019935      -0.02886604      -0.19763077       0.09545275
H        1.60073769       1.06799726       0.33661762       0.25415517       0.13418662       0.01355664
H        2.13801936      -0.04132737      -0.96108064      -0.06416383      -0.02696718       0.00667511
9
Lattice="1.0 0.0 0.0 0.0 1.0 0.0 0.0 0.0 1.0" Properties=species:S:1:pos:R:3:forces:R:3 R1=H R2=H R3=CH3 R4=CH3 leaving_group=Cl nucleophile=Cl rxn=sn2 config=rcc label=H_H_CH3_CH3_Cl_Cl_sn2_rcc conformation=0 reactant_id=H_H_CH3_CH3_Cl_none_-_r product_id=H_H_CH3_CH3_none_Cl_sn2_pc mp2_author_energy=-29302.391748605172 mp2_my_energy=0 hash=59123 address=T id=71 energy=-17370.413453801764 free_energy=-17370.413453801764 cell="(1,0,0), (0,1,0), (0,0,1)" stress="1.605607646020067e-08 -1.2143651472445552e-07 -2.0752668777295008e-08 -1.2143651472445552e-07 -3.670059859805462e-07 -6.101707420804496e-08 -2.0752668777295008e-08 -6.101707420804496e-08 -7.064659339896229e-08" pbc="F F F"
C        0.29341187      -0.56093516      -0.02783726      -0.06232230       0.22385684       0.03809925
C        1.66752210       0.02125003       0.01991362       0.00075340       0.03041108       0.00535471
H        2.28399164      -0.53845786       0.72586823      -0.02222823      -0.00037414       0.00409430
F       -0.68255110       1.24668339       0.29672198       0.04105081      -0.06881044      -0.00737976
Cl       0.67193040      -2.68875186      -0.38887215       0.02578538      -0.16282619      -0.03279680
H       -0.32481675      -0.40186820      -0.89592636      -0.01307625      -0.01686477      -0.02918712
H       -0.24982974      -0.68779761       0.89382557      -0.01066082      -0.02771564       0.02271434
H        1.58373041       1.05920295       0.33512623       0.05047905       0.03237456      -0.00346565
H        2.14250268      -0.04006010      -0.96140740      -0.00978103      -0.01005130       0.00256672
9
Lattice="1.0 0.0 0.0 0.0 1.0 0.0 0.0 0.0 1.0" Properties=species:S:1:pos:R:3:forces:R:3 R1=H R2=H R3=CH3 R4=CH3 leaving_group=Cl nucleophile=Cl rxn=sn2 config=rcc label=H_H_CH3_CH3_Cl_Cl_sn2_rcc conformation=0 reactant_id=H_H_CH3_CH3_Cl_none_-_r product_id=H_H_CH3_CH3_none_Cl_sn2_pc mp2_author_energy=-29302.391748605172 mp2_my_energy=0 hash=59123 address=T id=71 energy=-17370.457693856162 free_energy=-17370.457693856162 cell="(1,0,0), (0,1,0), (0,0,1)" stress="5.04779574202048e-09 3.053285973171804e-07 6.967308554198758e-08 3.053285973171804e-07 1.188634168719693e-06 1.5504883750330448e-07 6.967308554198758e-08 1.5504883750330448e-07 2.030528339686358e-07" pbc="F F F"
C        0.31472241      -0.64962663      -0.04284780       0.13293451      -0.55212791      -0.09369230
C        1.66633138       0.00724001       0.01747908      -0.00710183      -0.08739558      -0.01534993
H        2.29299483      -0.53612041       0.72668788       0.05420945       0.02000059       0.01114023
F       -0.69651738       1.27131705       0.30138346      -0.08819988       0.15267111       0.03472622
Cl       0.65952056      -2.60984049      -0.37561235      -0.07788980       0.49169927       0.07747872
H       -0.31715405      -0.39783667      -0.88293088       0.04761292       0.02757042       0.08167073
H       -0.24290910      -0.68079394       0.88248858       0.04388474       0.04165236      -0.07056068
H        1.56083016       1.04459130       0.33248927      -0.14337646      -0.08872797      -0.02511952
H        2.14807270      -0.03966462      -0.96172481       0.03792635      -0.00534230      -0.00029348
9
Lattice="1.0 0.0 0.0 0.0 1.0 0.0 0.0 0.0 1.0" Properties=species:S:1:pos:R:3:forces:R:3 R1=H R2=H R3=CH3 R4=CH3 leaving_group=Cl nucleophile=Cl rxn=sn2 config=rcc label=H_H_CH3_CH3_Cl_Cl_sn2_rcc conformation=0 reactant_id=H_H_CH3_CH3_Cl_none_-_r product_id=H_H_CH3_CH3_none_Cl_sn2_pc mp2_author_energy=-29302.391748605172 mp2_my_energy=0 hash=59123 address=T id=71 energy=-17370.578142305123 free_energy=-17370.578142305123 cell="(1,0,0), (0,1,0), (0,0,1)" stress="-3.696796961407752e-08 4.3752081450449765e-07 9.737532271809337e-08 4.3752081450449765e-07 5.3144878956136003e-08 -4.018143648187382e-08 9.737532271809337e-08 -4.018143648187382e-08 6.372512228468563e-08" pbc="F F F"
C        0.34331581      -0.73736966      -0.05777921       0.05562656      -0.17051518      -0.02942353
C        1.67200454      -0.02462945       0.01157489       0.01115490      -0.06188337      -0.01177015
H        2.32043633      -0.52314097       0.73621273       0.05097404       0.02963550       0.02346036
F       -0.73568556       1.35368459       0.32155430      -0.07688822       0.15816226       0.04424630
Cl       0.64450100      -2.55768915      -0.37164781      -0.02952221       0.10270702       0.00380043
H       -0.29008993      -0.38747595      -0.86163925       0.05214859       0.02218357       0.04214004
H       -0.21705794      -0.67152207       0.86514008       0.05080940       0.01668626      -0.03363798
H        1.48105997       1.00160779       0.31692265      -0.15493494      -0.08131573      -0.03785836
H        2.16740730      -0.04419954      -0.96292594       0.04063189      -0.01566033      -0.00095711
9
Lattice="1.0 0.0 0.0 0.0 1.0 0.0 0.0 0.0 1.0" Properties=species:S:1:pos:R:3:forces:R:3 R1=H R2=H R3=CH3 R4=CH3 leaving_group=Cl nucleophile=Cl rxn=sn2 config=rcc label=H_H_CH3_CH3_Cl_Cl_sn2_rcc conformation=0 reactant_id=H_H_CH3_CH3_Cl_none_-_r product_id=H_H_CH3_CH3_none_Cl_sn2_pc mp2_author_energy=-29302.391748605172 mp2_my_energy=0 hash=59123 address=T id=71 energy=-17370.611844620442 free_energy=-17370.611844620442 cell="(1,0,0), (0,1,0), (0,0,1)" stress="3.703976755084088e-08 3.445772290854917e-08 1.7775366395921778e-08 3.445772290854917e-08 -7.315523839662134e-08 -3.97340106344004e-08 1.7775366395921778e-08 -3.97340106344004e-08 -1.1711110260057283e-08" pbc="F F F"
C        0.36097186      -0.78049074      -0.06725774       0.00544817      -0.01255248      -0.00295228
C        1.67117336      -0.04272209       0.00617641       0.00019970      -0.00562263      -0.00189137
H        2.32440014      -0.46479054       0.77526091       0.00045339       0.01885833       0.01336167
F       -0.71015622       1.45261359       0.37354298       0.00518289       0.02832074       0.01755217
Cl       0.63043283      -2.57525608      -0.40216223      -0.00475933      -0.00462189      -0.01044488
H       -0.26965357      -0.38903960      -0.85321108       0.00610118       0.00079071       0.00298582
H       -0.19102127      -0.69672394       0.85873438       0.00837629      -0.00737490      -0.00177809
H        1.37183509       0.97351792       0.25833533      -0.03181827      -0.00779157      -0.02056514
H        2.19790929      -0.06784292      -0.95200650       0.01081596      -0.01000630       0.00373209
9
Lattice="1.0 0.0 0.0 0.0 1.0 0.0 0.0 0.0 1.0" Properties=species:S:1:pos:R:3:forces:R:3 R1=H R2=H R3=CH3 R4=CH3 leaving_group=Cl nucleophile=Cl rxn=sn2 config=rcc label=H_H_CH3_CH3_Cl_Cl_sn2_rcc conformation=0 reactant_id=H_H_CH3_CH3_Cl_none_-_r product_id=H_H_CH3_CH3_none_Cl_sn2_pc mp2_author_energy=-29302.391748605172 mp2_my_energy=0 hash=59123 address=T id=71 energy=-17370.61968538988 free_energy=-17370.61968538988 cell="(1,0,0), (0,1,0), (0,0,1)" stress="5.605856734850688e-08 -1.1980284135149427e-08 -5.164041760252313e-10 -1.1980284135149427e-08 -4.7207748771226126e-08 -1.698425214989204e-08 -5.164041760252313e-10 -1.698425214989204e-08 -5.900200934173039e-09" pbc="F F F"
C        0.36304135      -0.81059433      -0.07508594       0.00034315      -0.00484091      -0.00117056