9
Lattice="1.0 0.0 0.0 0.0 1.0 0.0 0.0 0.0 1.0" Properties=species:S:1:pos:R:3:forces:R:3 R1=H R2=H R3=CH3 R4=CH3 leaving_group=Cl nucleophile=Cl rxn=sn2 config=rcc label=H_H_CH3_CH3_Cl_Cl_sn2_rcc conformation=0 reactant_id=H_H_CH3_CH3_Cl_none_-_r product_id=H_H_CH3_CH3_none_Cl_sn2_pc mp2_author_energy=-29302.391748605172 mp2_my_energy=0 hash=59123 address=T id=71 energy=-17372.33216497299 free_energy=-17372.33216497299 cell="(1,0,0), (0,1,0), (0,0,1)" pbc="F F F"
C        0.09142836      -0.02057665       0.00018700      -0.00383810       0.00153641      -0.00068481
C        1.58722280       0.14924827      -0.00111085       0.00020147      -0.00237977      -0.00061630
H        2.03195864      -0.84661872      -0.00635447      -0.00043287       0.00066109       0.00360198
F       -0.53491861       1.24651010      -0.01033438       0.00123778      -0.00105707       0.00337249
Cl       0.88543890      -3.39675651       0.00603569      -0.00050197      -0.00038193      -0.00016305
H       -0.24798218      -0.56713807      -0.87777751      -0.00113173       0.00148985       0.00279851
H       -0.24989953      -0.55273097       0.88632969       0.00349898      -0.00246302      -0.00540624
H        1.91405155       0.69490750       0.88785996      -0.00213133       0.00382493      -0.00088743
H        1.90859158       0.70242064      -0.88742268       0.00309776      -0.00123049      -0.00201515
9
Lattice="1.0 0.0 0.0 0.0 1.0 0.0 0.0 0.0 1.0" Properties=species:S:1:pos:R:3:forces:R:3 R1=H R2=H R3=CH3 R4=CH3 leaving_group=Cl nucleophile=Cl rxn=sn2 config=rcc label=H_H_CH3_CH3_Cl_Cl_sn2_rcc conformation=0 reactant_id=H_H_CH3_CH3_Cl_none_-_r product_id=H_H_CH3_CH3_none_Cl_sn2_pc mp2_author_energy=-29302.391748605172 mp2_my_energy=0 hash=59123 address=T id=71 energy=-17372.33187792814 free_energy=-17372.33187792814 cell="(1,0,0), (0,1,0), (0,0,1)" stress="-2.5173217789034855e-10 7.105291872160424e-09 1.37223123042937e-10 7.105291872160424e-09 -1.2798297762696003e-09 2.730061232198319e-09 1.37223123042937e-10 2.730061232198319e-09 9.434798709000493e-11" pbc="F F F"
C        0.09457846      -0.02434526       0.01719040      -0.00059003       0.00080651      -0.00035837
C        1.58951253       0.15367606       0.00994285      -0.00040921      -0.00073813      -0.00026880
H        2.03977500      -0.83846730       0.05898318      -0.00149072      -0.00133344      -0.00160886
F       -0.53951085       1.23693949      -0.05294100       0.00066603       0.00155708       0.00089626
Cl       0.86459047      -3.39597232      -0.09501115       0.00382572      -0.00048057       0.00226359
H       -0.24101488      -0.61478177      -0.83269659      -0.00124423       0.00197072      -0.00100337
H       -0.24418673      -0.51532574       0.92801358      -0.00105820       0.00022184      -0.00078568
H        1.91098124       0.74900846       0.86866071       0.00030263      -0.00219512       0.00051733
H        1.91116627       0.65853397      -0.90472953      -0.00000201       0.00019110       0.00034790
9
Lattice="1.0 0.0 0.0 0.0 1.0 0.0 0.0 0.0 1.0" Properties=species:S:1:pos:R:3:forces:R:3 R1=H R2=H R3=CH3 R4=CH3 leaving_group=Cl nucleophile=Cl rxn=sn2 config=rcc label=H_H_CH3_CH3_Cl_Cl_sn2_rcc conformation=0 reactant_id=H_H_CH3_CH3_Cl_none_-_r product_id=H_H_CH3_CH3_none_Cl_sn2_pc mp2_author_energy=-29302.391748605172 mp2_my_energy=0 hash=59123 address=T id=71 energy=-17372.33144777207 free_energy=-17372.33144777207 cell="(1,0,0), (0,1,0), (0,0,1)" stress="-6.39483255453477e-10 1.8851451096643537e-08 1.3219880927450399e-09 1.8851451096643537e-08 -8.614197539031012e-09 -2.1086541390972577e-09 1.3219880927450399e-09 -2.1086541390972577e-09 -5.188293038691532e-10" pbc="F F F"
C        0.09585140      -0.02407202       0.03789255      -0.00158299       0.00241650       0.00054379
C        1.59042621       0.15710283       0.02308213      -0.00108997      -0.00173681       0.00008450
H        2.04474698      -0.82944568       0.12139958      -0.00379971      -0.00310513      -0.00084664
F       -0.54102193       1.22882080      -0.11264190       0.00174533       0.00383292      -0.00166695
Cl       0.85516720      -3.41143561      -0.21106886       0.01013027      -0.00348837      -0.00161391
H       -0.23519491      -0.66889293      -0.77290624      -0.00326902       0.00185375       0.00157220
H       -0.24458657      -0.45476742       0.97847049      -0.00283127       0.00526651       0.00142084
H        1.91039817       0.79694715       0.84978471       0.00112701      -0.00310801       0.00030381
H        1.91010496       0.61500847      -0.91660000      -0.00042967      -0.00193136       0.00020236
9
Lattice="1.0 0.0 0.0 0.0 1.0 0.0 0.0 0.0 1.0" Properties=species:S:1:pos:R:3:forces:R:3 R1=H R2=H R3=CH3 R4=CH3 leaving_group=Cl nucleophile=Cl rxn=sn2 config=rcc label=H_H_CH3_CH3_Cl_Cl_sn2_rcc conformation=0 reactant_id=H_H_CH3_CH3_Cl_none_-_r product_id=H_H_CH3_CH3_none_Cl_sn2_pc mp2_author_energy=-29302.391748605172 mp2_my_energy=0 hash=59123 address=T id=71 energy=-17372.334136129874 free_energy=-17372.334136129874 cell="(1,0,0), (0,1,0), (0,0,1)" stress="-5.584343960823306e-10 2.5573326028792805e-08 3.011474492789898e-09 2.5573326028792805e-08 -1.2314409850300762e-08 -1.55789069651668e-08 3.011474492789898e-09 -1.55789069651668e-08 -5.168481127140778e-09" pbc="F F F"
C        0.09969073      -0.02745341       0.06649421      -0.00224770       0.00351750       0.00308855
C        1.59312353       0.16330982       0.04104004      -0.00154436      -0.00231958       0.00121812
H        2.05730906      -0.80913159       0.20806689      -0.00499817      -0.00408288       0.00113103
F       -0.54543827       1.20328553      -0.19333832       0.00227123       0.00305313      -0.00994843
Cl       0.82730687      -3.42083889      -0.37056765       0.01374962      -0.00535336      -0.01282414
H       -0.22110293      -0.74435152      -0.68569657      -0.00413667      -0.00334653       0.01032139
H       -0.24219826      -0.37365308       1.04109325      -0.00398865       0.01567222       0.00677032
H        1.90783977       0.86326266       0.81960886       0.00278409      -0.00280043       0.00003768
H        1.90936100       0.55483606      -0.92928825      -0.00188938      -0.00434007       0.00020547
9
Lattice="1.0 0.0 0.0 0.0 1.0 0.0 0.0 0.0 1.0" Properties=species:S:1:pos:R:3:forces:R:3 R1=H R2=H R3=CH3 R4=CH3 leaving_group=Cl nucleophile=Cl rxn=sn2 config=rcc label=H_H_CH3_CH3_Cl_Cl_sn2_rcc conformation=0 reactant_id=H_H_CH3_CH3_Cl_none_-_r product_id=H_H_CH3_CH3_none_Cl_sn2_pc mp2_author_energy=-29302.391748605172 mp2_my_energy=0 hash=59123 address=T id=71 energy=-17372.327895987684 free_energy=-17372.327895987684 cell="(1,0,0), (0,1,0), (0,0,1)" stress="5.825881589176255e-09 1.4617750440718563e-08 -2.351820445193667e-09 1.4617750440718563e-08 -5.4054536617573245e-08 -1.610650619915798e-08 -2.351820445193667e-09 -1.610650619915798e-08 -1.2871112945884006e-08" pbc="F F F"
C        0.10784554      -0.04271510       0.07781418      -0.00107006       0.00450951       0.00460539
C        1.59872178       0.16896190       0.04891583      -0.00119469       0.00103017       0.00214451
H        2.07836209      -0.76882936       0.32991393      -0.00375235      -0.01060049      -0.02699572
F       -0.55432963       1.18125214      -0.17168042       0.00194999      -0.00143496      -0.03847435
Cl       0.77355475      -3.38202655      -0.45937339       0.00815852      -0.02026388      -0.01429085
H       -0.20821552      -0.75858461      -0.67699939       0.00240980      -0.02218416       0.02657176
H       -0.22456900      -0.40053713       1.05128362      -0.00480427       0.03916829       0.01765908
H        1.88430049       0.95699182       0.75023452       0.00799781      -0.01888833       0.02292423
H        1.93022101       0.45475248      -0.95269642      -0.00969476       0.02866384       0.00585595
9
Lattice="1.0 0.0 0.0 0.0 1.0 0.0 0.0 0.0 1.0" Properties=species:S:1:pos:R:3:forces:R:3 R1=H R2=H R3=CH3 R4=CH3 leaving_group=Cl nucleophile=Cl rxn=sn2 config=rcc label=H_H_CH3_CH3_Cl_Cl_sn2_rcc conformation=0 reactant_id=H_H_CH3_CH3_Cl_none_-_r product_id=H_H_CH3_CH3_none_Cl_sn2_pc mp2_author_energy=-29302.391748605172 mp2_my_energy=0 hash=59123 address=T id=71 energy=-17372.30568951789 free_energy=-17372.30568951789 cell="(1,0,0), (0,1,0), (0,0,1)" stress="1.803676596232629e-08 -1.3415435446697856e-09 -7.449541333521828e-09 -1.3415435446697856e-09 -9.741851946331332e-08 -3.5738045091326943e-09 -7.449541333521828e-09 -3.5738045091326943e-09 -1.4719758833139806e-08" pbc="F F F"
C        0.10989977      -0.05184337       0.07089410       0.00090132       0.00472516       0.00378951
C        1.60110042       0.16652908       0.04574151      -0.00094250       0.00479274       0.00156178
H        2.08604188      -0.74425040       0.39659925      -0.00327514      -0.02128239      -0.05319639
F       -0.55833307       1.18329837      -0.09520312       0.00256714      -0.00077688      -0.05920794
Cl       0.75739253      -3.33989902      -0.44421348       0.00044126      -0.03375109      -0.00602028
H       -0.21359129      -0.71606369      -0.72587322       0.00867653      -0.03735872       0.03249259
H       -0.21473302      -0.47628459       1.01918535      -0.00240252       0.05110652       0.02638850
H        1.86707664       1.00271365       0.69636764       0.00855123      -0.03030437       0.04829707
H        1.95103765       0.38506557      -0.96608558      -0.01451732       0.06284904       0.00589515
9
Lattice="1.0 0.0 0.0 0.0 1.0 0.0 0.0 0.0 1.0" Properties=species:S:1:pos:R:3:forces:R:3 R1=H R2=H R3=CH3 R4=CH3 leaving_group=Cl nucleophile=Cl rxn=sn2 config=rcc label=H_H_CH3_CH3_Cl_Cl_sn2_rcc conformation=0 reactant_id=H_H_CH3_CH3_Cl_none_-_r product_id=H_H_CH3_CH3_none_Cl_sn2_pc mp2_author_energy=-29302.391748605172 mp2_my_energy=0 hash=59123 address=T id=71 energy=-17372.263836233156 free_energy=-17372.263836233156 cell="(1,0,0), (0,1,0), (0,0,1)" stress="3.163452983962421e-08 -1.821789861402627e-08 -1.1168412250657851e-08 -1.821789861402627e-08 -1.8374803036035457e-07 2.8651123795574626e-09 -1.1168412250657851e-08 2.8651123795574626e-09 -1.6394546368345303e-08" pbc="F F F"
C        0.10826378      -0.05919131       0.06540841       0.00284982       0.00717379       0.00358137
C        1.60252593       0.15862595       0.04349224      -0.00084654       0.01082802       0.00075224
H        2.09104872      -0.70913618       0.48534966      -0.00492142      -0.03432747      -0.07102380
F       -0.56241013       1.18484638       0.00018602       0.00202536       0.00508053      -0.07588228
Cl       0.75765742      -3.28598976      -0.43800063      -0.00700176      -0.06156970      -0.00064220
H       -0.22803941      -0.65597946      -0.77716949       0.01402997      -0.04907475       0.03488859
H       -0.21105517      -0.55763249       0.97758613       0.00218902       0.05954618       0.03595147
H        1.85320905       1.05319740       0.61638848       0.00851118      -0.03158297       0.07329378
H        1.97469130       0.28052506      -0.97582838      -0.01683564       0.09392638      -0.00091917
9
Lattice="1.0 0.0 0.0 0.0 1.0 0.0 0.0 0.0 1.0" Properties=species:S:1:pos:R:3:forces:R:3 R1=H R2=H R3=CH3 R4=CH3 leaving_group=Cl nucleophile=Cl rxn=sn2 config=rcc label=H_H_CH3_CH3_Cl_Cl_sn2_rcc conformation=0 reactant_id=H_H_CH3_CH3_Cl_none_-_r product_id=H_H_CH3_CH3_none_Cl_sn2_pc mp2_author_energy=-29302.391748605172 mp2_my_energy=0 hash=59123 address=T id=71 energy=-17372.20204583289 free_energy=-17372.20204583289 cell="(1,0,0), (0,1,0), (0,0,1)" stress="2.597776165897257e-08 -1.384843895681021e-08 -9.266207791394038e-09 -1.384843895681021e-08 -3.5577330920662956e-07 -2.2566543557875033e-08 -9.266207791394038e-09 -2.2566543557875033e-08 -1.4402169479161562e-08" pbc="F F F"
C        0.10416786      -0.06906815       0.06078528       0.00160209       0.01902515       0.00570186
C        1.60371444       0.14344528       0.04267327      -0.00194582       0.02227423       0.00170991
H        2.09792845      -0.65925632       0.58839893      -0.01918328      -0.03847721      -0.06413684
F       -0.56540974       1.17787176       0.10791669      -0.01191494       0.01564659      -0.07370762
Cl       0.76775538      -3.20043694      -0.43988765      -0.00179224      -0.12069299      -0.01023961
H       -0.24804420      -0.58637238      -0.82596516       0.01767204      -0.04252034       0.03199136
H       -0.21415059      -0.64143783       0.92725482       0.00667174       0.06410294       0.04028378
H        1.84112079       1.09941508       0.51067483       0.02664705      -0.01622430       0.07619974
H        1.99880911       0.14510508      -0.97443856      -0.01775664       0.09686593      -0.00780258
9
Lattice="1.0 0.0 0.0 0.0 1.0 0.0 0.0 0.0 1.0" Properties=species:S:1:pos:R:3:forces:R:3 R1=H R2=H R3=CH3 R4=CH3 leaving_group=Cl nucleophile=Cl rxn=sn2 config=rcc label=H_H_CH3_CH3_Cl_Cl_sn2_rcc conformation=0 reactant_id=H_H_CH3_CH3_Cl_none_-_r product_id=H_H_CH3_CH3_none_Cl_sn2_pc mp2_author_energy=-29302.391748605172 mp2_my_energy=0 hash=59123 address=T id=71 energy=-17372.14667167011 free_energy=-17372.14667167011 cell="(1,0,0), (0,1,0), (0,0,1)" stress="-2.079363314481781e-09 1.884938609411108e-08 1.7973095798260547e-09 1.884938609411108e-08 -5.663400554123815e-07 -7.621939941324033e-08 1.7973095798260547e-09 -7.621939941324033e-08 -2.6305522757180925e-09" pbc="F F F"
C        0.10246787      -0.08762513       0.05553672      -0.00603859       0.05112264       0.01106272
C        1.60560192       0.12143504       0.04120614      -0.00971162       0.04641210       0.00537279
H        2.11668887      -0.61968715       0.65430941      -0.07495074      -0.04270279      -0.04326256
F       -0.55375616       1.16260526       0.18156654      -0.06256105       0.02120545      -0.05225954
Cl       0.77003818      -3.08197840      -0.43231110       0.02832021      -0.18157056      -0.02928560
H       -0.26577993      -0.54383843      -0.85724195       0.03044837      -0.02823832       0.03178566
H       -0.22082784      -0.70469200       0.88771039       0.01756577       0.05929422       0.02739610
H        1.81481591       1.11663259       0.43295200       0.11171077       0.01212902       0.05542665
H        2.01664269       0.04641382      -0.96631571      -0.03478311       0.06234823      -0.00623622
9
Lattice="1.0 0.0 0.0 0.0 1.0 0.0 0.0 0.0 1.0" Properties=species:S:1:pos:R:3:forces:R:3 R1=H R2=H R3=CH3 R4=CH3 leaving_group=Cl nucleophile=Cl rxn=sn2 config=rcc label=H_H_CH3_CH3_Cl_Cl_sn2_rcc conformation=0 reactant_id=H_H_CH3_CH3_Cl_none_-_r product_id=H_H_CH3_CH3_none_Cl_sn2_pc mp2_author_energy=-29302.391748605172 mp2_my_energy=0 hash=59123 address=T id=71 energy=-17372.06587531319 free_energy=-17372.06587531319 cell="(1,0,0), (0,1,0), (0,0,1)" stress="5.0859246337790305e-08 -8.279732207188432e-08 -3.985774366944435e-09 -8.279732207188432e-08 -1.1542927643880797e-06 -2.0291666353606236e-07 -3.985774366944435e-09 -2.0291666353606236e-07 8.635872613605755e-08" pbc="F F F"
C        0.10628601      -0.12060708       0.04856065      -0.05639631       0.19143368       0.02919482
C        1.61188449       0.09131599       0.03784037      -0.04858671       0.12796945       0.01408669
H        2.16501952      -0.59043572       0.68458786      -0.23498283      -0.06964072      -0.03315523
F       -0.51341444       1.14885503       0.21698412      -0.14776288       0.00221326      -0.02816729
Cl       0.75213074      -2.96457481      -0.41496030       0.07487466      -0.32111319      -0.05441886
H       -0.28577006      -0.52442522      -0.87801907       0.07705929      -0.07599254       0.06806474
H       -0.23224191      -0.74365182       0.86967474       0.06146977       0.01763810      -0.04455565
H        1.74240202       1.10969173       0.39451442       0.37639225       0.10170125       0.04850237
H        2.03959513       0.00309749      -0.96177034      -0.10206724       0.02579072       0.00044841
9
Lattice="1.0 0.0 0.0 0.0 1.0 0.0 0.0 0.0 1.0" Properties=species:S:1:pos:R:3:forces:R:3 R1=H R2=H R3=CH3 R4=CH3 leaving_group=Cl nucleophile=Cl rxn=sn2 config=rcc label=H_H_CH3_CH3_Cl_Cl_sn2_rcc conformation=0 reactant_id=H_H_CH3_CH3_Cl_none_-_r product_id=H_H_CH3_CH3_none_Cl_sn2_pc mp2_author_energy=-29302.391748605172 mp2_my_energy=0 hash=59123 address=T id=71 energy=-17371.87498023786 free_energy=-17371.87498023786 cell="(1,0,0), (0,1,0), (0,0,1)" stress="4.450123812159465e-07 -6.459453447436335e-07 -9.695519164543061e-08 -6.459453447436335e-07 -1.7833847221130272e-06 -4.038034172930113e-07 -9.695519164543061e-08 -4.038034172930113e-07 3.149692186522395e-07" pbc="F F F"
C        0.12139408      -0.17192096       0.04090398      -0.46844282       1.09225255       0.15231761
C        1.62492709       0.05697746       0.03403569      -0.14823476       0.24241298       0.02657192
H        2.22783460      -0.57098386       0.69450017      -0.42369927      -0.10552026      -0.03982194
F       -0.47399184       1.14815475       0.22537452       0.01486775      -0.44299563      -0.06788445
Cl       0.73211255      -2.87836130      -0.40108071       0.12261282      -0.59845380      -0.09959864
H       -0.30650036      -0.50355967      -0.89637320       0.17727633      -0.29684723       0.14361324
H       -0.24863619      -0.74871690       0.88142469       0.15997975      -0.13664673      -0.20311845
H        1.64148691       1.08287167       0.38024406       0.75603487       0.25260632       0.07533177
H        2.06726467      -0.00519559      -0.96161674      -0.19039466      -0.00680820       0.01258893
9
Lattice="1.0 0.0 0.0 0.0 1.0 0.0 0.0 0.0 1.0" Properties=species:S:1:pos:R:3:forces:R:3 R1=H R2=H R3=CH3 R4=CH3 leaving_group=Cl nucleophile=Cl rxn=sn2 config=rcc label=H_H_CH3_CH3_Cl_Cl_sn2_rcc conformation=0 reactant_id=H_H_CH3_CH3_Cl_none_-_r product_id=H_H_CH3_CH3_none_Cl_sn2_pc mp2_author_energy=-29302.391748605172 mp2_my_energy=0 hash=59123 address=T id=71 energy=-17371.348203089656 free_energy=-17371.348203089656 cell="(1,0,0), (0,1,0), (0,0,1)" stress="7.678410986759766e-07 -1.4701389022598693e-06 -2.0598887443832166e-07 -1.4701389022598693e-06 -1.0969141404173658e-06 -3.4201376825375703e-07 -2.0598887443832166e-07 -3.4201376825375703e-07 1.5769715044810843e-07" pbc="F F F"
C        0.16798259      -0.28040483       0.02570314      -1.19805965       3.03173091       0.44981442
C        1.63960022       0.03295414       0.03144210      -0.13223093       0.24542561       0.02351016
H        2.26984646      -0.56022957       0.69879840      -0.37511024      -0.11681003      -0.04366706
F       -0.47556733       1.19214054       0.23245588       0.55073772      -1.50555100      -0.20696079
Cl       0.71993943      -2.81889246      -0.39144348       0.17237615      -0.96073570      -0.16058208
H       -0.32412886      -0.47388726      -0.91060367       0.20058393      -0.53035815       0.00916112
H       -0.26450014      -0.73527836       0.90160796       0.18498480      -0.38951438      -0.15852144
H        1.56634870       1.05786703       0.37227202       0.75364782       0.26453240       0.07602476
H        2.08637045      -0.00500363      -0.96281991      -0.15692959      -0.03871965       0.01122092
9
Lattice="1.0 0.0 0.0 0.0 1.0 0.0 0.0 0.0 1.0" Properties=species:S:1:pos:R:3:forces:R:3 R1=H R2=H R3=CH3 R4=CH3 leaving_group=Cl nucleophile=Cl rxn=sn2 config=rcc label=H_H_CH3_CH3_Cl_Cl_sn2_rcc conformation=0 reactant_id=H_H_CH3_CH3_Cl_none_-_r product_id=H_H_CH3_CH3_none_Cl_sn2_pc mp2_author_energy=-29302.391748605172 mp2_my_energy=0 hash=59123 address=T id=71 energy=-17370.83488275993 free_energy=-17370.83488275993 cell="(1,0,0), (0,1,0), (0,0,1)" stress="3.9951648147334225e-07 -1.344008704572983e-06 -1.974767279645255e-07 -1.344008704572983e-06 -1.052282123400403e-06 -2.662356047195286e-07 -1.974767279645255e-07 -2.662356047195286e-07 -1.9443915390359332e-07" pbc="F F F"
C        0.20789452      -0.38149053       0.01066484      -0.92387162       2.63980101       0.40518850
C        1.64407426       0.02472157       0.03064524      -0.04836699       0.22696242       0.02659058
H        2.28228765      -0.55622945       0.70034344      -0.24138809      -0.08194016      -0.03459580
F       -0.49399069       1.24234273       0.23947687       0.50299015      -1.30040664      -0.18285579
Cl       0.71419632      -2.78686621      -0.38617416       0.17704708      -1.02044478      -0.17231995
H       -0.33080439      -0.45614646      -0.91087225       0.04566358      -0.36079568      -0.13726546
H       -0.27064448      -0.72232177       0.90689417       0.04180258      -0.30185710       0.02545113
H        1.54121750       1.04912180       0.36959129       0.54716882       0.22660356       0.06035936
H        2.09166081      -0.00386609      -0.96315699      -0.10104551      -0.02792262       0.00944744
9
Lattice="1.0 0.0 0.0 0.0 1.0 0.0 0.0 0.0 1.0" Properties=species:S:1:pos:R:3:forces:R:3 R1=H R2=H R3=CH3 R4=CH3 leaving_group=Cl nucleophile=Cl rxn=sn2 config=rcc label=H_H_CH3_CH3_Cl_Cl_sn2_rcc conformation=0 reactant_id=H_H_CH3_CH3_Cl_none_-_r product_id=H_H_CH3_CH3_none_Cl_sn2_pc mp2_author_energy=-29302.391748605172 mp2_my_energy=0 hash=59123 address=T id=71 energy=-17370.54102675084 free_energy=-17370.54102675084 cell="(1,0,0), (0,1,0), (0,0,1)" stress="9.408152957565056e-08 -8.363023414650671e-07 -1.290289686454269e-07 -8.363023414650671e-07 -1.2626502639966837e-06 -2.527060555850069e-07 -1.290289686454269e-07 -2.527060555850069e-07 -2.8042266232306693e-07" pbc="F F F"
C        0.23575275      -0.46105232      -0.00143786      -0.51354473       1.66637110       0.25854538
C        1.64552858       0.01789301       0.02979581      -0.01126597       0.17534483       0.02456484
H        2.28952832      -0.55369462       0.70149366      -0.14508351      -0.04462199      -0.02283638
F       -0.50920679       1.28153851       0.24509576       0.29181300      -0.76398421      -0.10788670
Cl       0.70886431      -2.75612229      -0.38105622       0.14991019      -0.86793375      -0.14785845
H       -0.33220989      -0.44522923      -0.90677846      -0.03422557      -0.17212894      -0.14420459
H       -0.27186375      -0.71323313       0.90607856      -0.03394300      -0.15587903       0.08805953
H        1.52472298       1.04233003       0.36763443       0.35988958       0.17750414       0.04292237
H        2.09477499      -0.00316436      -0.96341324      -0.06354998      -0.01467214       0.00869401
9
Lattice="1.0 0.0 0.0 0.0 1.0 0.0 0.0 0.0 1.0" Properties=species:S:1:pos:R:3:forces:R:3 R1=H R2=H R3=CH3 R4=CH3 leaving_group=Cl nucleophile=Cl rxn=sn2 config=rcc label=H_H_CH3_CH3_Cl_Cl_sn2_rcc conformation=0 reactant_id=H_H_CH3_CH3_Cl_none_-_r product_id=H_H_CH3_CH3_none_Cl_sn2_pc mp2_author_energy=-29302.391748605172 mp2_my_energy=0 hash=59123 address=T id=71 energy=-17370.36757065515 free_energy=-17370.36757065515 cell="(1,0,0), (0,1,0), (0,0,1)" stress="-1.1475141119605222e-08 -2.293650291655372e-07 -3.574274210155606e-08 -2.293650291655372e-07 -6.120639632166345e-07 -1.1559694190132896e-07 -3.574274210155606e-08 -1.1559694190132896e-07 -1.2193819353952148e-07" pbc="F F F"
C        0.26337256      -0.55061773      -0.01534137      -0.14557706       0.51642584       0.08112425
C        1.64614885       0.00846506       0.02845029       0.00064550       0.05892232       0.00861677
H        2.29725527      -0.55116335       0.70289453      -0.04540646      -0.01139639      -0.00476770
F       -0.52500659       1.32262773       0.25109876       0.07663554      -0.20678720      -0.02710394
Cl       0.70081235      -2.70948944      -0.37323803       0.06275099      -0.34310513      -0.06027755
H       -0.33037947      -0.43589452      -0.89901612      -0.02300705      -0.03708619      -0.05374998
H       -0.26999927      -0.70489175       0.90133843      -0.02252831      -0.03644045       0.04085026
H        1.50536794       1.03285615       0.36507775       0.11661272       0.06556997       0.01168147
H        2.09831987      -0.00262657      -0.96385178      -0.02012586      -0.00610277       0.00362643
9
Lattice="1.0 0.0 0.0 0.0 1.0 0.0 0.0 0.0 1.0" Properties=species:S:1:pos:R:3:forces:R:3 R1=H R2=H R3=CH3 R4=CH3 leaving_group=Cl nucleophile=Cl rxn=sn2 config=rcc label=H_H_CH3_CH3_Cl_Cl_sn2_rcc conformation=0 reactant_id=H_H_CH3_CH3_Cl_none_-_r product_id=H_H_CH3_CH3_none_Cl_sn2_pc mp2_author_energy=-29302.391748605172 mp2_my_energy=0 hash=59123 address=T id=71 energy=-17370.390707755018 free_energy=-17370.390707755018 cell="(1,0,0), (0,1,0), (0,0,1)" stress="4.459180079907581e-08 2.641119311613342e-07 5.2378220171067606e-08 2.641119311613342e-07 9.496380592192215e-07 1.5621116037089076e-07 5.2378220171067606e-08 1.5621116037089076e-07 1.8021351804857607e-07" pbc="F F F"
C        0.28973767      -0.65211878      -0.03154629       0.15902501      -0.61100398      -0.09791650
C        1.64540851      -0.00395309       0.02641897      -0.00411341      -0.07492172      -0.01277572
H        2.30583507      -0.54857565       0.70444500       0.05030165       0.01797253       0.01249658
F       -0.53840161       1.35826742       0.25656593      -0.08290606       0.21500580       0.03687425
Cl       0.68567307      -2.62927427      -0.35961036      -0.09114678       0.48291746       0.07984780
H       -0.32374870      -0.43096611      -0.88680121       0.03979925       0.03103120       0.07378461
H       -0.26323937      -0.69998774       0.89091867       0.04149427       0.02893365      -0.06283029
H        1.48148065       1.01850174       0.36159470      -0.14408640      -0.08531633      -0.02558892
H        2.10314622      -0.00262792      -0.96457295       0.03163246      -0.00461862      -0.00389182
9
Lattice="1.0 0.0 0.0 0.0 1.0 0.0 0.0 0.0 1.0" Properties=species:S:1:pos:R:3:forces:R:3 R1=H R2=H R3=CH3 R4=CH3 leaving_group=Cl nucleophile=Cl rxn=sn2 config=rcc label=H_H_CH3_CH3_Cl_Cl_sn2_rcc conformation=0 reactant_id=H_H_CH3_CH3_Cl_none_-_r product_id=H_H_CH3_CH3_none_Cl_sn2_pc mp2_author_energy=-29302.391748605172 mp2_my_energy=0 hash=59123 address=T id=71 energy=-17370.544409721966 free_energy=-17370.544409721966 cell="(1,0,0), (0,1,0), (0,0,1)" stress="-2.1191508232486682e-08 5.501603562404043e-07 1.1925894404610877e-07 5.501603562404043e-07 -2.92470767640544e-08 -2.6958163093900807e-08 1.1925894404610877e-07 -2.6958163093900807e-08 1.3301583782077196e-07" pbc="F F F"
C        0.32278184      -0.74890299      -0.04787126       0.10953444      -0.32056716      -0.05446730
C        1.64944803      -0.02833075       0.02086937       0.01359780      -0.08073320      -0.01887975
H        2.32543299      -0.53684864       0.71287871       0.06340763       0.04078953       0.03056845
F       -0.57240000       1.44199332       0.27412432      -0.11432074       0.27649708       0.06165524
Cl       0.66534082      -2.57439508      -0.35258074      -0.06729228       0.18274258       0.02164704
H       -0.30322804      -0.42326627      -0.86501426       0.06763559       0.02651728       0.07233155
H       -0.24030050      -0.69740951       0.87311216       0.07640856       0.00829749      -0.05905930
H        1.41931407       0.98407351       0.34764558      -0.20542485      -0.11279357      -0.05025772
H        2.11950229      -0.00764800      -0.96575142       0.05645383      -0.02075002      -0.00353822
9
Lattice="1.0 0.0 0.0 0.0 1.0 0.0 0.0 0.0 1.0" Properties=species:S:1:pos:R:3:forces:R:3 R1=H R2=H R3=CH3 R4=CH3 leaving_group=Cl nucleophile=Cl rxn=sn2 config=rcc label=H_H_CH3_CH3_Cl_Cl_sn2_rcc conformation=0 reactant_id=H_H_CH3_CH3_Cl_none_-_r product_id=H_H_CH3_CH3_none_Cl_sn2_pc mp2_author_energy=-29302.391748605172 mp2_my_energy=0 hash=59123 address=T id=71 energy=-17370.59861682225 free_energy=-17370.59861682225 cell="(1,0,0), (0,1,0), (0,0,1)" stress="3.360618642547715e-08 1.653674497564042e-07 5.99025931836666e-08 1.653674497564042e-07 -2.7895331289886754e-07 -9.834878676080835e-08 5.99025931836666e-08 -9.834878676080835e-08 -9.080197665569918e-09" pbc="F F F"
C        0.34587036      -0.78999301      -0.05634210       0.03020356      -0.05343372      -0.01136259
C        1.65440385      -0.04571641       0.01394344       0.00670119      -0.02277898      -0.00946274
H        2.33533234      -0.50259424       0.73753316       0.01198863       0.04583829       0.03365877
F       -0.58811583       1.52637999       0.30783157      -0.02210113       0.10945090       0.04662764
Cl       0.64305444      -2.58610072      -0.36860692      -0.02907841      -0.01474130      -0.02157353
H       -0.28345396      -0.41829695      -0.85235007       0.02576336       0.00707894       0.01645486
H       -0.21198765      -0.70823783       0.86664487       0.03716793      -0.01377952      -0.00868465
H        1.34503552       0.95818598       0.31144607      -0.09649556      -0.03317219      -0.04983588
H        2.14575245      -0.02436123      -0.96268757       0.03585042      -0.02446242       0.00417813
9
Lattice="1.0 0.0 0.0 0.0 1.0 0.0 0.0 0.0 1.0" Properties=species:S:1:pos:R:3:forces:R:3 R1=H R2=H R3=CH3 R4=CH3 leaving_group=Cl nucleophile=Cl rxn=sn2 config=rcc label=H_H_CH3_CH3_Cl_Cl_sn2_rcc conformation=0 reactant_id=H_H_CH3_CH3_Cl_none_-_r product_id=H_H_CH3_CH3_none_Cl_sn2_pc mp2_author_energy=-29302.391748605172 mp2_my_energy=0 hash=59123 address=T id=71 energy=-17370.617262887496 free_energy=-17370.617262887496 cell="(1,0,0), (0,1,0), (0,0,1)" stress="6.335692974636341e-08 -6.1068891457818735e-09 1.6010549442410373e-08 -6.1068891457818735e-09 -8.917926025383515e-08 -5.115619321882086e-08 1.6010549442410373e-08 -5.115619321882086e-08 -1.8837789704346312e-08" pbc="F F F"
C        0.35561071      -0.81323333      -0.06298537       0.00446060      -0.01041562      -0.00317192