21
Properties=species:S:1:pos:R:3 energy=-103.3791260620635 pbc="F F F"
N        3.61319000       2.99696000       5.73833000
C        3.70942000       3.05695000       7.05828000
C        4.92433000       3.28137000       7.75063000
C        6.10635000       3.45297000       6.98510000
C        6.00219000       3.39234000       5.57234000
C        4.72520000       3.15976000       5.02138000
H        2.77426000       2.91905000       7.60385000
H        4.95068000       3.32027000       8.82934000
H        7.05722000       3.62607000       7.46476000
H        6.86885000       3.51893000       4.94062000
S        4.40104000       3.05071000       3.33891000
C        5.80951000       3.27437000       2.07373000
H        5.45657000       3.18671000       1.03814000
H        6.31342000       4.24283000       2.15776000
H        6.61452000       2.54226000       2.19794000
C        3.96973000       6.86560000       5.03208000
O        4.64447000       6.46791000       3.79759000
H        3.11346000       7.52173000       4.82559000
H        3.55499000       5.99552000       5.55773000
H        4.64627000       7.39130000       5.71682000
H        4.12534000       5.97145000       3.15525000
21
Properties=species:S:1:pos:R:3 energy=-103.37039253153792 pbc="F F F"
N        3.62040000       3.07208000       5.78563000
C        3.72778000       3.11182000       7.10535000
C        4.95223000       3.30194000       7.79116000
C        6.13163000       3.46018000       7.01869000
C        6.01556000       3.42097000       5.60617000
C        4.72992000       3.22220000       5.06189000
H        2.79414000       2.98556000       7.65637000
H        4.98758000       3.32557000       8.87007000
H        7.08943000       3.60763000       7.49316000
H        6.87982000       3.53883000       4.96953000
S        4.39165000       3.14298000       3.38119000
C        5.79691000       3.34554000       2.10856000
H        5.43408000       3.28403000       1.07452000
H        6.32895000       4.29778000       2.20398000
H        6.58168000       2.58923000       2.21507000
C        3.93433000       6.89536000       4.98335000
O        4.74878000       6.51315000       3.83104000
H        3.18864000       7.65446000       4.71112000
H        3.36015000       6.04152000       5.36621000
H        4.54559000       7.29469000       5.80180000
H        4.29442000       6.11551000       3.07922000
21
Properties=species:S:1:pos:R:3 energy=-103.36473351597888 pbc="F F F"
N        3.62761000       3.13263000       5.82772000
C        3.74587000       3.16016000       7.14672000
C        4.97737000       3.33396000       7.82423000
C        6.15178000       3.48919000       7.04354000
C        6.02414000       3.46241000       5.63182000
C        4.73254000       3.27907000       5.09601000
H        2.81557000       3.03743000       7.70420000
H        5.02155000       3.34840000       8.90296000
H        7.11449000       3.62539000       7.51144000
H        6.88423000       3.57852000       4.98929000
S        4.38116000       3.21549000       3.41799000
C        5.78125000       3.40728000       2.13764000
H        5.41116000       3.35724000       1.10558000
H        6.32643000       4.35170000       2.23607000
H        6.55675000       2.64024000       2.23424000
C        3.92172000       6.91317000       4.98034000
O        4.82912000       6.53140000       3.89959000
H        3.31279000       7.78385000       4.70190000
H        3.20585000       6.11056000       5.20162000
H        4.46363000       7.15614000       5.90250000
H        4.43679000       6.25497000       3.06262000
21
Properties=species:S:1:pos:R:3 energy=-103.35937371273678 pbc="F F F"
N        3.63103000       3.18442000       5.85223000
C        3.75718000       3.21357000       7.17037000
C        4.99238000       3.39065000       7.84027000
C        6.16109000       3.55216000       7.05231000
C        6.02498000       3.52350000       5.64148000
C        4.73115000       3.33249000       5.11356000
H        2.83059000       3.08863000       7.73351000
H        5.04339000       3.40346000       8.91869000
H        7.12609000       3.69272000       7.51421000
H        6.88066000       3.64274000       4.99367000
S        4.37164000       3.25553000       3.43816000
C        5.77191000       3.42752000       2.15498000
H        5.40190000       3.36115000       1.12380000
H        6.31653000       4.37359000       2.23882000
H        6.54804000       2.66262000       2.26354000
C        3.92044000       6.89627000       5.03740000
O        4.87704000       6.47081000       4.01715000
H        3.50071000       7.88391000       4.80319000
H        3.06113000       6.21435000       5.08798000
H        4.37949000       6.94768000       6.03227000
H        4.54825000       6.33968000       3.11925000
21
Properties=species:S:1:pos:R:3 energy=-103.3220632377407 pbc="F F F"
N        3.63115000       3.24834000       5.83761000
C        3.76055000       3.23968000       7.15626000
C        5.00043000       3.37510000       7.82724000
C        6.16535000       3.57601000       7.04286000
C        6.02483000       3.60025000       5.63215000
C        4.73219000       3.40531000       5.10179000
H        2.83415000       3.10889000       7.71812000
H        5.05793000       3.32651000       8.90424000
H        7.13257000       3.69324000       7.50667000
H        6.87836000       3.74771000       4.98713000
S        4.37683000       3.30337000       3.42468000
C        5.79095000       3.38879000       2.14923000
H        5.42910000       3.28037000       1.11848000
H        6.35094000       4.32849000       2.19414000
H        6.55295000       2.61629000       2.29991000
C        3.87555000       6.88532000       5.05982000
O        4.83233000       6.31173000       4.11538000
H        3.64730000       7.92865000       4.80377000
H        2.91351000       6.35623000       5.02890000
H        4.25096000       6.86013000       6.09005000
H        4.55414000       6.23395000       3.19504000
21
Properties=species:S:1:pos:R:3 energy=-103.2131889820775 pbc="F F F"
N        3.62293000       3.33991000       5.83478000
C        3.76196000       3.26419000       7.15522000
C        5.01292000       3.31440000       7.81863000
C        6.17399000       3.57190000       7.04538000
C        6.02698000       3.70582000       5.64022000
C        4.73232000       3.50889000       5.10278000
H        2.83676000       3.13579000       7.71875000
H        5.08184000       3.15742000       8.88434000
H        7.14644000       3.63033000       7.50888000
H        6.87746000       3.90657000       5.00490000
S        4.38472000       3.36928000       3.41773000
C        5.79982000       3.36691000       2.14497000
H        5.43710000       3.22402000       1.11801000
H        6.38093000       4.29566000       2.15221000
H        6.54397000       2.58280000       2.32747000
C        3.86106000       6.86595000       5.05378000
O        4.80036000       6.20425000       4.15034000
H        3.70842000       7.90977000       4.75036000
H        2.86708000       6.39936000       5.01988000
H        4.21163000       6.85476000       6.09278000
H        4.52706000       6.15325000       3.22732000
21
Properties=species:S:1:pos:R:3 energy=-103.02411715266052 pbc="F F F"
N        3.60769000       3.42997000       5.83733000
C        3.75916000       3.29884000       7.15878000
C        5.01977000       3.27293000       7.80739000
C        6.17862000       3.57007000       7.04616000
C        6.02415000       3.80396000       5.65380000
C        4.72724000       3.60132000       5.11181000
H        2.83746000       3.17189000       7.72776000
H        5.09829000       3.02411000       8.85455000
H        7.15694000       3.56466000       7.50006000
H        6.87136000       4.04526000       5.02786000
S        4.39777000       3.40036000       3.41522000
C        5.80814000       3.35581000       2.14231000
H        5.44105000       3.19468000       1.11858000
H        6.39892000       4.27991000       2.12820000
H        6.54392000       2.56580000       2.33726000
C        3.85716000       6.83936000       5.05069000
O        4.77872000       6.11449000       4.17712000
H        3.75281000       7.87381000       4.70120000
H        2.84480000       6.41308000       5.02626000
H        4.19791000       6.85323000       6.09276000
H        4.50400000       6.08566000       3.25255000
21
Properties=species:S:1:pos:R:3 energy=-102.79034126853242 pbc="F F F"
N        3.58637000       3.52199000       5.84572000
C        3.75328000       3.33457000       7.16634000
C        5.02423000       3.24547000       7.79468000
C        6.18192000       3.56786000       7.04453000
C        6.02004000       3.88756000       5.66939000
C        4.71697000       3.68508000       5.13108000
H        2.83672000       3.19408000       7.74067000
H        5.11083000       2.92677000       8.82154000
H        7.16500000       3.50396000       7.48100000
H        6.86547000       4.14936000       5.04842000
S        4.41177000       3.41546000       3.40939000
C        5.81834000       3.35011000       2.13901000
H        5.44712000       3.18038000       1.11671000
H        6.41206000       4.27419000       2.11325000
H        6.55099000       2.55688000       2.33396000
C        3.85472000       6.81259000       5.05098000
O        4.75985000       6.03732000       4.20158000
H        3.79107000       7.83369000       4.65870000
H        2.82884000       6.41969000       5.03716000
H        4.18871000       6.85277000       6.09433000
H        4.48778000       6.01189000       3.26829000
21
Properties=species:S:1:pos:R:3 energy=-102.47015807097199 pbc="F F F"
N        3.56398000       3.61960000       5.86408000
C        3.74653000       3.36230000       7.17464000
C        5.02561000       3.22651000       7.77883000
C        6.18112000       3.56325000       7.03240000
C        6.01559000       3.95713000       5.67923000
C        4.70188000       3.77490000       5.14526000
H        2.83556000       3.19823000       7.75085000
H        5.11838000       2.86647000       8.79069000
H        7.16693000       3.45807000       7.45374000
H        6.86520000       4.21778000       5.06378000
S        4.42826000       3.40321000       3.41112000
C        5.82931000       3.34411000       2.13576000
H        5.45402000       3.17223000       1.11516000
H        6.41770000       4.27229000       2.10675000
H        6.56656000       2.55362000       2.31949000
C        3.85332000       6.78766000       5.05368000
O        4.74570000       5.96016000       4.23210000
H        3.82454000       7.79386000       4.62431000
H        2.81737000       6.42368000       5.04974000
H        4.17839000       6.85350000       6.09770000
H        4.47928000       5.95716000       3.28642000
21
Properties=species:S:1:pos:R:3 energy=-102.0304417210096 pbc="F F F"
N        3.54572000       3.70406000       5.88918000
C        3.74331000       3.37447000       7.17891000
C        5.02456000       3.21365000       7.76429000
C        6.18001000       3.55328000       7.01526000
C        6.01655000       4.00689000       5.68485000
C        4.68184000       3.89664000       5.14050000
H        2.83654000       3.19444000       7.75708000
H        5.12016000       2.83624000       8.76963000
H        7.16653000       3.42936000       7.43294000
H        6.87273000       4.25587000       5.07769000
S        4.43687000       3.37905000       3.40870000
C        5.83756000       3.33950000       2.13287000
H        5.46338000       3.16827000       1.11285000
H        6.42000000       4.26997000       2.10428000
H        6.58169000       2.55441000       2.30151000
C        3.85129000       6.76863000       5.05684000
O        4.73573000       5.86434000       4.26874000
H        3.84766000       7.76263000       4.60234000
H        2.81002000       6.42669000       5.06216000
H        4.16839000       6.85622000       6.09974000
H        4.47659000       5.91395000       3.30521000
21
Properties=species:S:1:pos:R:3 energy=-101.91542277182364 pbc="F F F"
N        3.54344000       3.79144000       5.91161000
C        3.74517000       3.38823000       7.17464000
C        5.02351000       3.20071000       7.75259000
C        6.18086000       3.53915000       6.99577000
C        6.01948000       4.03529000       5.69089000
C        4.66406000       4.05200000       5.11806000
H        2.83819000       3.19572000       7.75229000
H        5.11895000       2.80995000       8.75235000
H        7.16791000       3.40302000       7.41517000
H        6.88200000       4.27855000       5.09552000
S        4.44783000       3.33824000       3.40930000
C        5.84521000       3.33595000       2.13186000
H        5.47226000       3.16737000       1.11216000
H        6.42077000       4.26835000       2.10557000
H        6.59569000       2.55542000       2.28420000
C        3.83769000       6.76087000       5.06970000
O        4.73107000       5.75143000       4.31223000
H        3.86128000       7.73785000       4.58585000
H        2.79837000       6.43174000       5.07645000
H        4.15805000       6.86673000       6.10415000
H        4.46770000       5.86383000       3.31522000
21
Properties=species:S:1:pos:R:3 energy=-101.82680822550277 pbc="F F F"
N        3.55899000       3.88053000       5.93062000
C        3.75196000       3.41620000       7.17417000
C        5.02588000       3.16166000       7.73826000
C        6.19129000       3.50120000       6.99159000
C        6.04242000       4.05885000       5.71238000
C        4.68463000       4.11940000       5.12692000
H        2.84039000       3.23226000       7.74820000
H        5.11163000       2.72560000       8.71969000
H        7.17491000       3.32236000       7.40490000
H        6.91270000       4.30835000       5.13265000
S        4.48085000       3.29405000       3.45481000
C        5.85411000       3.33748000       2.15212000
H        5.46472000       3.19131000       1.13569000
H        6.42072000       4.27534000       2.13523000
H        6.61084000       2.55760000       2.26860000
C        3.82160000       6.77332000       5.05156000
O        4.71160000       5.73872000       4.29287000
H        3.83284000       7.73559000       4.54071000
H        2.78496000       6.44035000       5.08876000
H        4.16575000       6.90680000       6.07431000
H        4.39195000       5.81136000       3.29353000
21
Properties=species:S:1:pos:R:3 energy=-101.72910022659399 pbc="F F F"
N        3.58646000       3.96624000       5.95107000
C        3.76236000       3.44559000       7.17381000
C        5.02576000       3.13011000       7.72856000
C        6.20108000       3.46667000       6.99316000
C        6.06943000       4.07460000       5.73650000
C        4.71397000       4.18144000       5.13757000
H        2.84396000       3.26392000       7.73796000
H        5.09691000       2.65457000       8.69269000
H        7.17897000       3.24720000       7.40273000
H        6.95029000       4.32528000       5.17491000
S        4.50691000       3.25556000       3.49902000
C        5.85512000       3.34836000       2.16874000
H        5.45560000       3.22403000       1.15506000
H        6.41520000       4.28959000       2.16188000
H        6.61435000       2.56676000       2.25698000
C        3.80796000       6.77799000       5.03429000
O        4.68733000       5.72392000       4.26547000
H        3.81110000       7.72680000       4.50122000
H        2.77328000       6.44435000       5.09737000
H        4.16968000       6.93521000       6.04795000
H        4.32146000       5.75334000       3.25027000
21
Properties=species:S:1:pos:R:3 energy=-101.48293955439186 pbc="F F F"
N        3.61285000       4.04348000       5.97817000
C        3.77210000       3.46985000       7.17860000
C        5.02569000       3.11483000       7.72950000
C        6.20973000       3.44651000       7.00309000
C        6.09194000       4.08432000       5.76286000
C        4.74043000       4.25246000       5.15982000
H        2.84659000       3.27207000       7.72635000
H        5.08424000       2.61315000       8.68121000
H        7.18258000       3.19617000       7.40950000
H        6.98111000       4.32875000       5.21268000
S        4.48091000       3.24727000       3.50035000
C        5.85135000       3.36795000       2.15826000
H        5.47671000       3.24952000       1.13927000
H        6.41632000       4.30213000       2.16243000
H        6.59846000       2.57858000       2.26097000
C        3.80237000       6.77465000       5.03688000
O        4.67582000       5.71013000       4.27976000
H        3.80803000       7.70871000       4.47978000
H        2.76818000       6.44094000       5.10507000
H        4.15905000       6.96000000       6.04915000
H        4.26936000       5.64671000       3.15192000
21
Properties=species:S:1:pos:R:3 energy=-101.15798196899199 pbc="F F F"
N        3.62349000       4.08221000       6.00040000
C        3.77578000       3.47853000       7.18401000
C        5.02645000       3.11153000       7.73395000
C        6.21598000       3.43960000       7.01378000
C        6.10630000       4.09365000       5.78363000
C        4.75567000       4.31902000       5.19744000
H        2.84670000       3.26560000       7.72045000
H        5.07900000       2.59975000       8.68008000
H        7.18620000       3.17324000       7.41647000
H        6.99618000       4.32875000       5.23086000
S        4.41815000       3.30309000       3.45260000
C        5.85198000       3.38433000       2.13450000
H        5.50702000       3.25912000       1.10937000
H        6.42795000       4.30779000       2.14802000
H        6.57878000       2.58644000       2.27280000
C        3.80418000       6.77078000       5.04534000
O        4.68232000       5.70807000       4.33158000
H        3.81313000       7.69534000       4.47199000
H        2.76922000       6.43636000       5.10826000
H        4.14829000       6.97613000       6.05891000
H        4.24282000       5.49059000       3.06972000
21
Properties=species:S:1:pos:R:3 energy=-100.82993252298401 pbc="F F F"
N        3.63422000       4.11651000       6.01811000
C        3.77893000       3.48486000       7.18585000
C        5.02678000       3.11025000       7.73757000
C        6.22281000       3.43314000       7.02473000
C        6.12254000       4.10373000       5.80547000
C        4.77455000       4.39816000       5.24697000
H        2.84663000       3.25758000       7.71199000
H        5.07383000       2.59110000       8.67944000
H        7.19030000       3.15273000       7.42319000
H        7.01052000       4.32778000       5.24561000
S        4.35760000       3.36024000       3.38694000
C        5.85045000       3.39735000       2.11584000
H        5.53324000       3.26510000       1.08375000
H        6.43715000       4.31209000       2.13760000
H        6.56067000       2.59237000       2.28514000
C        3.80690000       6.76381000       5.05342000
O        4.68054000       5.69761000       4.37604000
H        3.82052000       7.68189000       4.46680000
H        2.77005000       6.43132000       5.11184000
H        4.13863000       6.98735000       6.06888000
H        4.22001000       5.34628000       2.99815000
21
Properties=species:S:1:pos:R:3 energy=-100.57283542377817 pbc="F F F"
N        3.63680000       4.13436000       6.02980000
C        3.77907000       3.48606000       7.18589000
C        5.02663000       3.11035000       7.73956000
C        6.22769000       3.42823000       7.03036000
C        6.13565000       4.10860000       5.82052000
C        4.78843000       4.47779000       5.30219000
H        2.84567000       3.25130000       7.70767000
H        5.07145000       2.58841000       8.67932000
H        7.19345000       3.14180000       7.42621000
H        7.01829000       4.32661000       5.25183000
S        4.30524000       3.40736000       3.32479000
C        5.85391000       3.40387000       2.10205000
H        5.55130000       3.26815000       1.06776000
H        6.44379000       4.31357000       2.13019000
H        6.55217000       2.59565000       2.29073000
C        3.81478000       6.75342000       5.06018000
O        4.69336000       5.70071000       4.45854000
H        3.83012000       7.67020000       4.46371000
H        2.77256000       6.42547000       5.11466000
H        4.12882000       6.99683000       6.07928000
H        4.18851000       5.22317000       2.89795000
21
Properties=species:S:1:pos:R:3 energy=-100.82585629721733 pbc="F F F"
N        3.63799000       4.14377000       6.03862000
C        3.77935000       3.48526000       7.18912000
C        5.02714000       3.10981000       7.74166000
C        6.23000000       3.42459000       7.03458000
C        6.14115000       4.11063000       5.82793000
C        4.79527000       4.51555000       5.34422000
H        2.84551000       3.24644000       7.70735000
H        5.07104000       2.58615000       8.68026000
H        7.19477000       3.13501000       7.42808000
H        7.02056000       4.32612000       5.25308000
S        4.26181000       3.48936000       3.26086000
C        5.85550000       3.41311000       2.09018000
H        5.56754000       3.27140000       1.05340000
H        6.45442000       4.31521000       2.12111000
H        6.53934000       2.59912000       2.29940000
C        3.81629000       6.75747000       5.06604000
O        4.72136000       5.72344000       4.50980000
H        3.83302000       7.67173000       4.46406000
H        2.77525000       6.42016000       5.11518000
H        4.11803000       7.00869000       6.08768000
H        4.17269000       5.05907000       2.85020000
21
Properties=species:S:1:pos:R:3 energy=-101.2678622718657 pbc="F F F"
N        3.64145000       4.16170000       6.05693000
C        3.78072000       3.48452000       7.19730000
C        5.02884000       3.10696000       7.74597000
C        6.23243000       3.41927000       7.04029000
C        6.14460000       4.11629000       5.83843000
C        4.80169000       4.55521000       5.39718000
H        2.84604000       3.23760000       7.70879000
H        5.07170000       2.57935000       8.68224000
H        7.19607000       3.12272000       7.42940000
H        7.02074000       4.32784000       5.25549000
S        4.22953000       3.55652000       3.18978000
C        5.85005000       3.42661000       2.07851000
H        5.58856000       3.27700000       1.03436000
H        6.46562000       4.31841000       2.11185000
H        6.51728000       2.60488000       2.31427000
C        3.81928000       6.76461000       5.07250000
O        4.75055000       5.73874000       4.55048000
H        3.83671000       7.67415000       4.46368000
H        2.78151000       6.41418000       5.11245000
H        4.10193000       7.02687000       6.09733000
H        4.15389000       4.89790000       2.78539000
21
Properties=species:S:1:pos:R:3 energy=-101.49779175997783 pbc="F F F"
N        3.64470000       4.20336000       6.12729000
C        3.78648000       3.48211000       7.23965000
C        5.03798000       3.08519000       7.76481000
C        6.23429000       3.40529000       7.05356000
C        6.13535000       4.13677000       5.86841000
C        4.79604000       4.60159000       5.48455000
H        2.85312000       3.21454000       7.74076000
H        5.08560000       2.53509000       8.68800000
H        7.19864000       3.08699000       7.42179000
H        7.00321000       4.35045000       5.27063000
S        4.22854000       3.59707000       3.12397000
C        5.84542000       3.44466000       2.06409000
H        5.62030000       3.28816000       1.00878000
H        6.48063000       4.32627000       2.10318000
H        6.49262000       2.61476000       2.33474000
C        3.82827000       6.76720000       5.05620000
O        4.75002000       5.70882000       4.55770000
H        3.85706000       7.66537000       4.43331000
H        2.78995000       6.41980000       5.09020000
H        4.09005000       7.05175000       6.08182000
H        4.10472000       4.82031000       2.65357000
21
Properties=species:S:1:pos:R:3 energy=-102.14262465780043 pbc="F F F"
N        3.64956000       4.24210000       6.19818000
C        3.79218000       3.46396000       7.28152000
C        5.04997000       3.04677000       7.77336000
C        6.21778000       3.38998000       7.03953000
C        6.07434000       4.17300000       5.87850000
C        4.76566000       4.60929000       5.57008000
H        2.86298000       3.19132000       7.78132000
H        5.11384000       2.47849000       8.68645000
H        7.19162000       3.07606000       7.38025000
H        6.93698000       4.43686000       5.28156000
S        4.27697000       3.68531000       3.14903000
C        5.84771000       3.46459000       2.08341000
H        5.60707000       3.29952000       1.02583000
H        6.50143000       4.34080000       2.10183000
H        6.47379000       2.61614000       2.36350000
C        3.85138000       6.74421000       5.01365000
O        4.75581000       5.62078000       4.54123000
H        3.89876000       7.62845000       4.37752000
H        2.80715000       6.42083000       5.05419000
H        4.11077000       7.04717000       6.03456000
H        4.08033000       4.83196000       2.56120000
21
Properties=species:S:1:pos:R:3 energy=-102.33832252229341 pbc="F F F"
N        3.63256000       4.26218000       6.29959000
C        3.79918000       3.44833000       7.35259000
C        5.06599000       3.00033000       7.78878000
C        6.21671000       3.37162000       7.04215000
C        6.04514000       4.19658000       5.91572000
C        4.72897000       4.62320000       5.64913000
H        2.88234000       3.16133000       7.86583000
H        5.15244000       2.39065000       8.67383000
H        7.19819000       3.04543000       7.34076000
H        6.88532000       4.50132000       5.30757000
S        4.24625000       3.73937000       3.10147000
C        5.85384000       3.48639000       2.08711000
H        5.63862000       3.30322000       1.02807000
H        6.51840000       4.35240000       2.10562000
H        6.45748000       2.63451000       2.40110000
C        3.86162000       6.73922000       4.95843000
O        4.74152000       5.57793000       4.55154000
H        3.94299000       7.58892000       4.28139000
H        2.81106000       6.43949000       4.99969000
H        4.12138000       7.07670000       5.96751000
H        4.07801000       4.87226000       2.47799000
21
Properties=species:S:1:pos:R:3 energy=-102.45872295677341 pbc="F F F"
N        3.62595000       4.27819000       6.38596000
C        3.81406000       3.43991000       7.41717000
C        5.08396000       2.95613000       7.80231000
C        6.21994000       3.34375000       7.04226000
C        6.02385000       4.20089000       5.94444000
C        4.70482000       4.62767000       5.71400000
H        2.91086000       3.15081000       7.95376000
H        5.18672000       2.30692000       8.65824000
H        7.20622000       3.00020000       7.30239000
H        6.84702000       4.52747000       5.32581000
S        4.21638000       3.80946000       3.05817000
C        5.85889000       3.51149000       2.10289000
H        5.67938000       3.29482000       1.04463000
H        6.53014000       4.37173000       2.11706000
H        6.44262000       2.66725000       2.46935000
C        3.85837000       6.73882000       4.91018000
O        4.73204000       5.55002000       4.58250000
H        3.96674000       7.54150000       4.18026000
H        2.80396000       6.45457000       4.94799000
H        4.10841000       7.13441000       5.89937000
H        4.07740000       4.91443000       2.37445000
21
Properties=species:S:1:pos:R:3 energy=-102.52091575458765 pbc="F F F"
N        3.63206000       4.30269000       6.45129000
C        3.83119000       3.44548000       7.46626000
C        5.09770000       2.92283000       7.80969000
C        6.22304000       3.30648000       7.03255000
C        6.01417000       4.18751000       5.95616000
C        4.69894000       4.63408000       5.76052000
H        2.93802000       3.16697000       8.02523000
H        5.20739000       2.24773000       8.64534000
H        7.20894000       2.93928000       7.26030000
H        6.82583000       4.51522000       5.32422000
S        4.19289000       3.89590000       3.01886000
C        5.86640000       3.53737000       2.13326000
H        5.72328000       3.26289000       1.08388000
H        6.54110000       4.39477000       2.12422000
H        6.43307000       2.71601000       2.57059000
C        3.84052000       6.73450000       4.87640000
O        4.73302000       5.54199000       4.61544000
H        3.95214000       7.49736000       4.10399000
H        2.78865000       6.44258000       4.91529000
H        4.07715000       7.18535000       5.84393000
H        4.07900000       4.95187000       2.25455000
21
Properties=species:S:1:pos:R:3 energy=-102.55707708083034 pbc="F F F"
N        3.64279000       4.33103000       6.49456000
C        3.84479000       3.46111000       7.49855000
C        5.10503000       2.90448000       7.81013000
C        6.22240000       3.27253000       7.01446000
C        6.00929000       4.16894000       5.95205000
C        4.70110000       4.64266000       5.78601000
H        2.95840000       3.19819000       8.07569000
H        5.21647000       2.21567000       8.63467000
H        7.20459000       2.88114000       7.21687000
H        6.81382000       4.48689000       5.30673000
S        4.18232000       3.97641000       2.98528000
C        5.87706000       3.55691000       2.16481000
H        5.76169000       3.21798000       1.13168000
H        6.55457000       4.41099000       2.12110000
H        6.42996000       2.76683000       2.67140000
C        3.81556000       6.72766000       4.85882000
O        4.73780000       5.54832000       4.63841000