(written by ASE)

21 atoms
5 atom types

0.0                      10  xlo xhi
0.0                      10  ylo yhi
0.0                      10  zlo zhi

Masses

     1      12.010999996910238 # C
     2      1.0079999997406976 # H
     3      14.006999996396779 # N
     4      15.998999995884349 # O
     5      32.059999991752747 # S

Atoms # full

     1   0   3   0.0      3.5879141850000025      3.4846522500000034      5.7469407900000036
     2   0   1   0.0      3.7645784449999979      3.2704330299999995      7.0608725400000054
     3   0   1   0.0      5.0153004849999974       3.024014550000004      7.6220932000000019
     4   0   1   0.0      6.1423270550000026      3.2779824500000032      6.8334844800000027
     5   0   1   0.0      5.9774177850000001      3.6070682500000046      5.4908926400000055
     6   0   1   0.0      4.6766194149999976      3.5156914500000056      4.9703134200000036
     7   0   2   0.0      2.8561842949999985      3.2385802000000012      7.6585049000000041
     8   0   2   0.0      5.0999397149999979      2.6480139499999993       8.635622050000002
     9   0   2   0.0      7.1438157050000015      3.1684622000000005      7.2406152200000022
    10   0   2   0.0      6.8198591749999977      3.9087019200000057      4.8784591200000023
    11   0   5   0.0      4.2767273150000022      3.1097021600000048      3.2810990200000063
    12   0   1   0.0      5.8345507949999984       3.411419880000004      2.4148803300000026
    13   0   2   0.0      5.6659992149999994      3.1636221600000027      1.3643779500000051
    14   0   2   0.0      6.1252765750000009      4.4586457000000053      2.4838271600000041
    15   0   2   0.0      6.6266417650000022       2.765315489999999      2.7917994700000008
    16   0   1   0.0      3.9110709850000021      6.7130135900000028      4.8580052900000013
    17   0   4   0.0      4.6702972249999988      5.9015663099999998      3.9912687500000033
    18   0   2   0.0      3.2399714949999989      7.3519860500000007      4.2805841200000003
    19   0   2   0.0      3.3203515949999982      6.1349848099999988      5.5802396700000045
    20   0   2   0.0      4.6260813450000029      7.3283021000000019      5.3992690700000026
    21   0   2   0.0      4.0730220450000019      5.2818189000000046      3.5581007900000046
