21
Properties=species:S:1:pos:R:3:forces:R:3 MeOH_NucSubs=T 5000=T 80.00=T 90.00=T energy=-21771.54504775768 free_energy=-21771.54504775768 stress="-3.210069344704468e-12 2.8775883467660534e-10 -2.240470228707328e-10 2.8775883467660534e-10 -1.8360711814746361e-09 1.517587687983238e-10 -2.240470228707328e-10 1.517587687983238e-10 1.4073749489535548e-10" pbc="F F F"
N       38.64982863      39.60466333      40.83410079      -0.00806238      -0.38074556      -0.08685924
C       38.82649289      39.39044411      42.14803254      -0.00938485      -0.11242101      -0.02102029
C       40.07721493      39.14402563      42.70925320       0.03019368       0.05470307       0.03300762
C       41.20424150      39.39799353      41.92064448      -0.00557819      -0.01052590       0.01826871
C       41.03933223      39.72707933      40.57805264      -0.00139016      -0.23360895      -0.07226568
C       39.73853386      39.63570253      40.05747342       0.00104112      -0.38776761      -0.07349698
H       37.91809874      39.35859128      42.74566490       0.01249207       0.02380945       0.00080179
H       40.16185416      38.76802503      43.72278205       0.02899438       0.18370026       0.09581851
H       42.20573015      39.28847328      42.32777522       0.01027764       0.12765264       0.05167335
H       41.88177362      40.02871300      39.96561912      -0.02156184      -0.24302927      -0.07661780
S       39.33864176      39.22971324      38.36825902       0.00952254      -0.03051663       0.00954476
C       40.89646524      39.53143096      37.50204033       0.00464410       0.00339201       0.06339914
H       40.72791366      39.28363324      36.45153795      -0.05585675      -0.00588759       0.08002090
H       41.18719102      40.57865678      37.57098716      -0.02244253       0.01119151       0.06185669
H       41.68855621      38.88532657      37.87895947       0.02722077       0.00526902       0.03043280
C       38.97298543      42.83302467      39.94516529      -0.01264283       0.13963856      -0.03357832
O       39.73221167      42.02157739      39.07842875       0.07301169       0.34457505      -0.18639265
H       38.30188594      43.47199713      39.36774412      -0.12471251       0.21452319       0.13391431
H       38.38226604      42.25499589      40.66739967       0.07438643      -0.04725563      -0.09704279
H       39.68799579      43.44831318      40.48642907      -0.07643012       0.13858174       0.05535048
H       39.13493649      41.40182998      38.64526079       0.06627773       0.20472166       0.01318472
