11
Properties=species:S:1:pos:R:3:mp2_forces:R:3 R1=H R2=H R3=H R4=NO2 lg=F nu=Cl mp2_energy=-22926.248794513518 pbc="F F F"
C        0.71660710      -0.04557238       0.01803769       0.00597066       0.00108050       0.00625985
C        0.74775290       1.45302501      -0.02412403      -0.00442142      -0.00457408      -0.00582259
H        1.75338337       1.86936885      -0.12259533      -0.00081212       0.00190329       0.00004537
F       -1.27128172       0.26691266       0.13520087      -0.00112043      -0.00166888       0.00113488
Cl       2.74385533      -0.55272454      -0.03785788      -0.00414980       0.00093836      -0.00132580
H        0.43328612      -0.56229664      -0.87761842       0.00746873       0.00124565      -0.00297862
H        0.51078343      -0.50913295       0.96229413      -0.00814197       0.00060134      -0.00115858
H        0.22742389       1.86681259       0.83064200       0.00416457      -0.00080467       0.00077319
N        0.01262055       1.97693319      -1.21354562       0.00493069       0.00976836       0.00074045
O       -0.56060520       3.05528228      -1.07548280       0.00196913      -0.00585651      -0.00117105
O        0.11798422       1.37683194      -2.27654061      -0.00585803      -0.00263336       0.00350289
11
Properties=species:S:1:pos:R:3:mp2_forces:R:3 R1=H R2=H R3=H R4=NO2 lg=Cl nu=Cl mp2_energy=-32723.706863751588 pbc="F F F"
C        0.61399581      -0.02763513       0.03264432      -0.00072874       0.00132565      -0.00116539
C        0.67226566       1.46782560       0.00303528      -0.00406779       0.00265079      -0.00035137
H        1.69699227       1.83338010       0.05225823       0.00089813      -0.00312730      -0.00025862
Cl      -1.68220466      -0.06656059       0.40193953       0.00084517      -0.00150094      -0.00049499
Cl       2.86807049      -0.41949441      -0.30576023      -0.00134930      -0.00174658       0.00053134
H        0.43153809      -0.58088667      -0.86622657       0.00080773       0.00203043      -0.00045948
H        0.71586528      -0.52917053       0.97470043       0.00207210       0.00319147       0.00063165
H        0.07481603       1.91378554       0.79172628       0.00103108      -0.00136515      -0.00115457
N        0.12993726       2.03865997      -1.26866820      -0.00165491      -0.00039645      -0.00059402
O       -0.21716083       3.21786396      -1.21760858       0.00155338      -0.00391515      -0.00052791
O        0.12769460       1.34767216      -2.27963048       0.00059316       0.00285323       0.00384335
11
Properties=species:S:1:pos:R:3:mp2_forces:R:3 R1=H R2=H R3=H R4=NO2 lg=Cl nu=Br mp2_energy=-90226.86838309062 pbc="F F F"
C        0.60754060      -0.02219009       0.03800927      -0.01311356       0.00150312       0.00395425
C        0.63905770       1.47507556       0.01222743       0.00227712      -0.00080080       0.00394334
H        1.64967254       1.86571151       0.12263873      -0.00082179      -0.00004101      -0.00534019
Cl      -1.71259097      -0.10042982       0.42497154       0.00177501       0.00255551      -0.00550659
Br       2.98346006      -0.43614755      -0.34561201       0.00201567       0.00014678      -0.00005957
H        0.41108479      -0.57930708      -0.85582715       0.00432697       0.00044964      -0.00055536
H        0.71272418      -0.52306034       0.98073402       0.00272984       0.00041064      -0.00067745
H       -0.01008006       1.90440584       0.76915915       0.00250899      -0.00045160       0.00099814
N        0.15428344       2.04227509      -1.28460982       0.00345203      -0.00210999      -0.00000413
O       -0.13892952       3.23701655      -1.26130218      -0.00231963      -0.00488674      -0.00050976
O        0.13558726       1.33209033      -2.28197897      -0.00283063       0.00322445       0.00375730
11
Properties=species:S:1:pos:R:3:mp2_forces:R:3 R1=H R2=H R3=H R4=NO2 lg=Br nu=Cl mp2_energy=-90226.87242870904 pbc="F F F"
C        0.62072095      -0.02309212       0.02948454      -0.00397049       0.00352358       0.00423272
C        0.67398951       1.47387662       0.00090734       0.01342423      -0.02971960       0.00329921
H        1.70219428       1.83108361       0.04966184      -0.00748230       0.01915933       0.00095122
Br      -1.80891659      -0.13805445       0.38527133      -0.00427155       0.00789168       0.00028111
Cl       2.90785575      -0.40070685      -0.26502061      -0.00041048      -0.00018881      -0.00261961
H        0.47239993      -0.57961827      -0.87418698       0.00079920       0.00160551       0.00023606
H        0.71934061      -0.52553829       0.97168134       0.00115078       0.00018506      -0.00144875
H        0.08206766       1.92266068       0.79270983       0.00176504       0.00192298      -0.00114191
N        0.13595958       2.04855382      -1.27091477      -0.00258142      -0.01483043      -0.00728881
O       -0.21037084       3.22787970      -1.21850838      -0.00233649      -0.00374524      -0.00020536
O        0.13656915       1.35839555      -2.28267549       0.00391348       0.01419593       0.00370413
11
Properties=species:S:1:pos:R:3:mp2_forces:R:3 R1=H R2=H R3=H R4=NO2 lg=Br nu=Br mp2_energy=-147730.04391693644 pbc="F F F"
C        0.62555717      -0.01766464       0.02983050       0.00944903       0.00308082       0.00045070
C        0.68001657       1.48065511      -0.00619948       0.00277931      -0.00687969       0.00006342
H        1.70687980       1.84572007       0.01776992      -0.00298372       0.00365517       0.00273166
Br      -1.83986730      -0.09356118       0.35897746      -0.00237061      -0.00122088       0.00152492
Br       3.02662388      -0.48226974      -0.22433848      -0.00225446       0.00027803      -0.00203199
H        0.46990070      -0.57726486      -0.87160352      -0.00356619       0.00031864       0.00185504
H        0.68301232      -0.51786215       0.97684390      -0.00193881       0.00012341      -0.00024082
H        0.10433603       1.92904243       0.79781145      -0.00092578      -0.00094060      -0.00194343
N        0.11204506       2.04786183      -1.26863808      -0.00288225      -0.00216376      -0.00796606
O       -0.29286433       3.20722072      -1.20161535       0.00344311      -0.00180526      -0.00088418
O        0.15617012       1.37356241      -2.29042834       0.00125038       0.00555413       0.00644074
10
Properties=species:S:1:pos:R:3:mp2_forces:R:3 R1=H R2=H R3=H R4=CN lg=Cl nu=Br mp2_energy=-87176.97690122534 pbc="F F F"
C        0.61282782      -0.01463444       0.02500502       0.00548745       0.00166135       0.01107579
C        0.57445316       1.49833598       0.02569447      -0.00567034       0.01985438      -0.02020570
H        1.53135832       1.89859363       0.36258101       0.00079900      -0.01524354       0.01181680
Cl      -1.67577613      -0.29245005       0.46902500       0.00284867      -0.00160623      -0.00094053
Br       2.99358223      -0.25814949      -0.48708528      -0.00211961       0.00003232      -0.00418291
H        0.42472534      -0.57978401      -0.86582667      -0.00072771       0.00018002       0.00052544
H        0.79825585      -0.52651367       0.95000255       0.00015582       0.00063730      -0.00043110
H       -0.20746026       1.84229638       0.70351208      -0.00024740      -0.00182813      -0.00072810
C        0.29842316       2.04929299      -1.29902954      -0.00128371      -0.00328694       0.00238294
N        0.08178051       2.52698269      -2.34850864       0.00075787      -0.00040054       0.00068737
10
Properties=species:S:1:pos:R:3:mp2_forces:R:3 R1=H R2=H R3=H R4=CN lg=Br nu=Cl mp2_energy=-87176.9765234665 pbc="F F F"
C        0.61621181      -0.01726005       0.02248498      -0.00349743       0.00794888      -0.02578712
C        0.59279136       1.49584841       0.02952864      -0.02132386       0.03387480      -0.00935331
H        1.55922731       1.87833864       0.35949854       0.00771020      -0.02652122       0.00160206
Br      -1.76443216      -0.35982137       0.46553027       0.01301231      -0.00499183       0.00944924
Cl       2.90353620      -0.19112012      -0.48776734       0.00493330      -0.00360806       0.01447936
H        0.46339599      -0.57575115      -0.87899584       0.00396841      -0.00053803      -0.00080367
H        0.83327618      -0.53469346       0.93775091      -0.00607542       0.00074785       0.00143636
H       -0.17693835       1.85334454       0.71457296       0.00659566       0.00059468       0.00462279
C        0.31501985       2.05543936      -1.29124983      -0.00603457      -0.00836877       0.00249090
N        0.09008181       2.53964519      -2.33598328       0.00071142       0.00086169       0.00186341
10
Properties=species:S:1:pos:R:3:mp2_forces:R:3 R1=H R2=H R3=H R4=CN lg=Br nu=Br mp2_energy=-144680.15012995937 pbc="F F F"
C        0.60016360      -0.01110871       0.02267526       0.01921412       0.00203559       0.01065626
C        0.56545395       1.50323523       0.02915432      -0.01269794       0.02395018      -0.02362700
H        1.50879197       1.89325353       0.41369222       0.00381970      -0.01836566       0.00533664
Br      -1.78850629      -0.38486182       0.53513021       0.00506465       0.00244387      -0.00676376
Br       3.00527975      -0.21815178      -0.53729418      -0.00331187       0.00017221      -0.00064060
H        0.42181730      -0.57309782      -0.87266553       0.00080043      -0.00041863       0.00025073
H        0.82683739      -0.52825056       0.93587646      -0.00848418       0.00012183       0.00119002
H       -0.24374101       1.85262463       0.67193909       0.00493542      -0.00157877       0.00582190
C        0.35664612       2.06327561      -1.30446448      -0.00896650      -0.00886747       0.00611688
N        0.17942721       2.54705169      -2.35867338      -0.00037378       0.00050684       0.00165893
12
Properties=species:S:1:pos:R:3:mp2_forces:R:3 R1=H R2=H R3=H R4=CH3 lg=F nu=F mp2_energy=-8639.84783492049 pbc="F F F"
C        0.56984721      -0.00717178       0.05748225      -0.00597527       0.00040537       0.00666565
C        0.63033986       1.49662473       0.03404457       0.00012522      -0.00127044      -0.00579987
H        1.66229023       1.80076020       0.21545778      -0.00154088      -0.00076086       0.00061471
F       -1.16011610      -0.04413828       0.62127342       0.00257520       0.00068575      -0.00040215
F        2.24871030      -0.20039328      -0.62121106       0.00097430       0.00012331       0.00111655
H        0.23350817      -0.56075220      -0.79799555      -0.00022310       0.00263805      -0.00065941
H        0.86720391      -0.54329591       0.94083181       0.00219077      -0.00061330      -0.00317883
H       -0.01138203       1.87760256       0.82994162       0.00068845       0.00044564      -0.00116818
C        0.16027340       2.02635281      -1.31299977       0.00071022      -0.00023749       0.00119002
H        0.80365505       1.61704304      -2.09515989      -0.00108231       0.00116776       0.00029472
H       -0.86779683       1.69759421      -1.48080514       0.00182183      -0.00113821      -0.00019891
H        0.19276684       3.12102389      -1.36865004      -0.00026443      -0.00144558       0.00152569
12
Properties=species:S:1:pos:R:3:mp2_forces:R:3 R1=H R2=H R3=H R4=CH3 lg=Cl nu=F mp2_energy=-18437.153088328563 pbc="F F F"
C        0.44813219      -0.00683919       0.07969970      -0.01784721       0.04370571      -0.02534442
C        0.54578243       1.49845024       0.07530845      -0.00937220       0.02414853      -0.01291315
H        1.57666610       1.73090854       0.33857434       0.00186793      -0.01728027       0.00305319
Cl      -1.50118853      -0.33470029       0.84303893       0.00964917      -0.02032147       0.00850040
F        2.29635315      -0.02692971      -0.84428222       0.00416461      -0.01705791       0.01036344
H        0.26687237      -0.52498603      -0.84133800       0.00263475       0.00034153      -0.00365127
H        0.96629902      -0.55627725       0.84471672       0.00490023      -0.00415609       0.00425103
H       -0.12788143       1.93688816       0.81624007       0.00085590       0.00060702      -0.00217658
C        0.26052629       2.04688046      -1.31532937       0.00237678      -0.00332236       0.01086979
H        0.99741033       1.60033432      -1.98197564      -0.00102615      -0.00068123       0.00416641
H       -0.74887449       1.77896641      -1.64265803      -0.00095500      -0.00406975       0.00578179
H        0.34920257       3.13855433      -1.34978495       0.00275119      -0.00191372      -0.00290061
12
Properties=species:S:1:pos:R:3:mp2_forces:R:3 R1=H R2=H R3=H R4=CH3 lg=Br nu=Br mp2_energy=-143241.14334001095 pbc="F F F"
C        0.55101806       0.02080927       0.06928463       0.01568270      -0.00052048      -0.00414665
C        0.57785142       1.52709102       0.04157791      -0.00476963      -0.00246717       0.00185674
H        1.57476821       1.85991883       0.33588835       0.00112418      -0.00017930      -0.00830998
Br      -1.86892793      -0.27238540       0.66189008      -0.00831106      -0.00059561       0.00149463
Br       2.90955088      -0.37838466      -0.67573583      -0.00205132       0.00148341       0.00214171
H        0.29270165      -0.55161734      -0.80132546      -0.00143162       0.00081372       0.00135612
H        0.79136909      -0.51631638       0.96976513      -0.00759608       0.00130677       0.00126104
H       -0.12740719       1.89868854       0.78699057       0.00550257       0.00129769       0.00295893
C        0.22330969       2.07231474      -1.33392904       0.00407402      -0.00472186       0.00050704
H        0.92830181       1.69273366      -2.07678623      -0.00003072       0.00595607      -0.00063440
H       -0.78794092       1.76269136      -1.60730845       0.00324750      -0.00172679      -0.00182033
H        0.26470524       3.16570636      -1.34810166      -0.00544055      -0.00064646       0.00333516
11
Properties=species:S:1:pos:R:3:mp2_forces:R:3 R1=H R2=H R3=H R4=NH2 lg=F nu=F mp2_energy=-9075.958168982776 pbc="F F F"
C        0.60634142       0.01372266      -0.01924212      -0.00038493       0.00203772       0.00562346
C        0.74879341       1.51324833      -0.04350700       0.00084004       0.00082437      -0.01515345
H        1.80904213       1.74609108      -0.09259763      -0.00147425      -0.00070459       0.00368262
F       -1.16963155       0.05030102      -0.06368012       0.00301620      -0.00175680      -0.00738384
F        2.45679484      -0.29485934       0.11603440      -0.00376399       0.00340803       0.00045810
H        0.65243665      -0.52254771      -0.94854647       0.00272822       0.00047069       0.00145650
H        0.57069437      -0.52103669       0.90842552      -0.00085055      -0.00041725       0.00078101
H        0.33293005       1.89612605       0.90197590       0.00498944      -0.00262448       0.00274659
N        0.05080077       2.06082698      -1.21862389      -0.02153647       0.00015625       0.00796140
H       -0.07011137       3.05981322      -1.08975590       0.01479548       0.00081129      -0.00311350
H       -0.86617073       1.62835438      -1.15724270       0.00164081      -0.00220523       0.00294111
11
Properties=species:S:1:pos:R:3:mp2_forces:R:3 R1=H R2=H R3=H R4=NH2 lg=F nu=Cl mp2_energy=-18873.341948175155 pbc="F F F"
C        0.70472580       0.03112589      -0.02607534       0.00258695      -0.00120760       0.01460237
C        0.73934701       1.54099254      -0.02064609      -0.01475680       0.00149232      -0.00329262
H        1.76462414       1.91237943      -0.01719389      -0.00090278      -0.00160068      -0.00567791
F       -1.30905377       0.14922828      -0.03536519       0.00437743      -0.00333408      -0.01090264
Cl       2.81584787      -0.49659636       0.07593869       0.00251827      -0.00097718      -0.00281841
H        0.56359158      -0.46328911      -0.96906852      -0.00050724       0.00235389      -0.00040292
H        0.48871054      -0.50891939       0.87342908      -0.00331443       0.00098099       0.00021710
H        0.24295680       1.85817523       0.90652728       0.00897560       0.00175440       0.00328970
N        0.05087315       2.01941999      -1.22413826      -0.00522769      -0.00073145       0.00603375
H       -0.08121476       3.02214196      -1.14342168       0.00478741      -0.00036113      -0.00090185
H       -0.85848836       1.56538156      -1.12674609       0.00146329       0.00163052      -0.00014657
11
Properties=species:S:1:pos:R:3:mp2_forces:R:3 R1=H R2=H R3=H R4=NH2 lg=Cl nu=F mp2_energy=-18873.096649567018 pbc="F F F"
C        0.55185588      -0.00237198      -0.00631184      -0.00517167       0.01894342       0.01284862
C        0.67201158       1.49228984      -0.02628286      -0.00241301      -0.01391009      -0.00115862
H        1.74788369       1.65191050      -0.02818717      -0.00206861       0.00375651       0.00131104
Cl      -1.55513579      -0.22872496       0.10058602      -0.00529869      -0.00763589      -0.00440426
F        2.63020814      -0.17847738       0.03672114      -0.00022321      -0.00316382      -0.01008783
H        0.69145313      -0.51981264      -0.93673023       0.00676520      -0.00323657       0.00312848
H        0.76542174      -0.52489854       0.90342338      -0.00266261      -0.00068263      -0.00020246
H        0.23355415       1.89091633       0.90121624       0.00577821       0.00330633       0.00058924
N        0.07992952       2.07129428      -1.23614984       0.01250245      -0.00164324      -0.00722950
H        0.22371122       3.07401166      -1.21524786      -0.00745493       0.00123464       0.00323283
H       -0.91897326       1.90390289      -1.19979697       0.00024687       0.00303133       0.00197247
11
Properties=species:S:1:pos:R:3:mp2_forces:R:3 R1=H R2=H R3=H R4=NH2 lg=Br nu=Br mp2_energy=-143677.14561435507 pbc="F F F"
C        0.64069003       0.03726919       0.00339227       0.00551055       0.00198557      -0.01033731
C        0.65902067       1.54186923       0.01007360       0.00472338      -0.00429737       0.00431240
H        1.69159145       1.87456624       0.11243396      -0.00288766       0.00494945      -0.00426714
Br      -1.84084911      -0.18981876       0.15335307      -0.00119158       0.00439267       0.00023698
Br       3.12399040      -0.45301871      -0.10024901      -0.00202958       0.00041019       0.00541886
H        0.59050630      -0.49029108      -0.93144267       0.00228937       0.00070626       0.00020663
H        0.68131840      -0.51950122       0.92011081      -0.00459642       0.00032176      -0.00077947
H        0.10293176       1.87586796       0.89650116       0.00080229      -0.00214331       0.00018952
N        0.13101012       2.06470071      -1.24897874       0.00352102      -0.01072772      -0.00563163
H        0.19249253       3.07578459      -1.23407514      -0.00526891       0.00027337       0.00198228
H       -0.85078256       1.81261186      -1.28787930      -0.00087244       0.00412912       0.00866891
11
Properties=species:S:1:pos:R:3:mp2_forces:R:3 R1=H R2=H R3=NO2 R4=H lg=Cl nu=Cl mp2_energy=-32723.70662531337 pbc="F F F"
C        0.62351486      -0.02831570      -0.02468094      -0.02124290       0.01028975      -0.03602405
C        0.65938187       1.46822250      -0.00587925       0.00715369       0.00099289      -0.00831649
H        1.67824924       1.84792378      -0.07000805      -0.00037170      -0.00164726       0.00611690
Cl      -1.67679006      -0.10272818      -0.35251659       0.00181137      -0.00312451       0.01825888
Cl       2.89426672      -0.38638615       0.24477755      -0.00084424      -0.00141098       0.01505588
H        0.70977400      -0.53390854      -0.96584815       0.00667019      -0.00038579       0.00206174
H        0.47177447      -0.57796297       0.88230476       0.00708179      -0.00083170       0.00057260
H        0.04658567       1.89914425      -0.79104137      -0.00044544      -0.00040116       0.00179307
N        0.12348344       2.03969055       1.26787496       0.00407079      -0.00531562       0.00066744
O       -0.25987302       3.20715008       1.20958498       0.00032889      -0.00293746       0.00309079
O        0.16338283       1.36187038       2.28711210      -0.00421243       0.00477184      -0.00327677
11
Properties=species:S:1:pos:R:3:mp2_forces:R:3 R1=H R2=H R3=NO2 R4=H lg=Cl nu=Br mp2_energy=-90226.86796943778 pbc="F F F"
C        0.61602386      -0.02294023      -0.03634594       0.01135861      -0.00018819       0.00606384
C        0.61866518       1.47442964      -0.02022611      -0.00471712       0.01047553      -0.00918875
H        1.61579997       1.88715670      -0.16539723       0.00336473      -0.01003897       0.00617205
Cl      -1.70810219      -0.15109948      -0.39508724       0.00101132      -0.00204138      -0.00075370
Br       3.00213116      -0.38224220       0.33329515      -0.00162988       0.00061417      -0.00157125
H        0.72394320      -0.52750612      -0.97693250      -0.00589472       0.00131821      -0.00063959
H        0.43926168      -0.57830146       0.86254511      -0.00314572      -0.00055604      -0.00083092
H       -0.06220909       1.88519442      -0.75965588       0.00076019       0.00097545       0.00225457
N        0.16179480       2.04174711       1.28688424      -0.00210466       0.00049101       0.00081166
O       -0.11283533       3.24113459       1.27178432      -0.00304697      -0.00434658       0.00012967
O        0.13927675       1.32712703       2.28081608       0.00404424       0.00329677      -0.00244759
11
Properties=species:S:1:pos:R:3:mp2_forces:R:3 R1=H R2=H R3=NO2 R4=H lg=Br nu=Cl mp2_energy=-90226.87222321257 pbc="F F F"
C        0.63400876      -0.02377839      -0.02072824       0.02728225       0.00764051      -0.02440854
C        0.68111967       1.47377306       0.00394019       0.00233004      -0.00541775      -0.00295230
H        1.70867111       1.83629824      -0.01843144      -0.00276918       0.00442007      -0.00244514
Br      -1.80562411      -0.13552119      -0.32846615      -0.00579450      -0.00033118       0.01086013
Cl       2.92749332      -0.39932254       0.18569476      -0.00585739      -0.00149293       0.01387333
H        0.70206884      -0.52976607      -0.96325344      -0.00461973       0.00088346       0.00027861
H        0.51193228      -0.57655113       0.88963485      -0.00730077      -0.00018705      -0.00160352
H        0.10704246       1.91747806      -0.80356313      -0.00469882      -0.00249570       0.00361795
N        0.11023021       2.04723587       1.26174838       0.00480644      -0.00527244       0.00598135
O       -0.31865372       3.19727309       1.18320896       0.00159222      -0.00288363       0.00113895
O        0.17546117       1.38758099       2.29189527      -0.00497056       0.00513663      -0.00434083
11
Properties=species:S:1:pos:R:3:mp2_forces:R:3 R1=H R2=H R3=NO2 R4=H lg=Br nu=Br mp2_energy=-147730.0439319267 pbc="F F F"
C        0.62643005      -0.01775515      -0.02961955      -0.01186982       0.00358582       0.00817334
C        0.65933305       1.48124263      -0.00423527       0.00934305      -0.01242301      -0.00915988
H        1.67935397       1.86047554      -0.06657373      -0.00401436       0.00644740       0.00316882
Br      -1.83518914      -0.14179566      -0.35059524       0.00463888       0.00287935       0.00338313
Br       3.03764307      -0.43996817       0.24251928       0.00187114       0.00032013      -0.00462022
H        0.69679967      -0.52283145      -0.97340283       0.00398002       0.00093254       0.00096173
H        0.48179392      -0.57471631       0.87504040       0.00006511       0.00079441      -0.00067142
H        0.05060375       1.91614009      -0.79112769      -0.00007267      -0.00066275       0.00041083
N        0.12520246       2.04912973       1.27234327      -0.00225608       0.00986222       0.00089804
O       -0.27812632       3.20981167       1.21436732       0.00459648      -0.00802321       0.00024421
O        0.18990553       1.37496708       2.29296403      -0.00628172      -0.00371292      -0.00278857
13
Properties=species:S:1:pos:R:3:mp2_forces:R:3 R1=H R2=H R3=NO2 R4=NO2 lg=F nu=F mp2_energy=-18684.701616171125 pbc="F F F"
C        0.58257152      -0.10836803      -0.02594773      -0.00758000       0.00213716       0.01084947
C        0.67694505       1.37941031       0.12385055       0.00064274      -0.00710924       0.00128799
H        1.67026621       1.66782737       0.44738203      -0.00045464      -0.00060401      -0.00149733
F       -1.01556804      -0.20880036       0.85711240       0.00535423       0.00110859       0.00197770
F        2.04852298      -0.06386889      -0.90431441      -0.00145968       0.00211931      -0.00206557
H        0.04220530      -0.52431605      -0.85094064       0.00423738       0.00394140      -0.00359880
H        0.98870820      -0.72193004       0.75585323      -0.00273667      -0.00194351      -0.00260368
N       -0.26697830       2.01497622       1.10877485       0.00113580      -0.00007633       0.00231648
O       -1.24888424       2.61409913       0.69346280       0.00142730      -0.00398537       0.00054910
O        0.09161225       1.93316877       2.27636999      -0.00195989       0.00305358      -0.00462683
N        0.46457790       2.08880787      -1.17813785      -0.00168284       0.00243907      -0.00643293
O        1.04271515       3.17090023      -1.28881165      -0.00244164      -0.00316407       0.00166813
O       -0.28063398       1.59603348      -2.01386357       0.00551792       0.00208343       0.00217627
13
Properties=species:S:1:pos:R:3:mp2_forces:R:3 R1=H R2=H R3=NO2 R4=NO2 lg=Cl nu=F mp2_energy=-28481.724363157206 pbc="F F F"
C        0.46978415      -0.11475066      -0.01913660      -0.00614098      -0.00322854       0.00942058
C        0.67235416       1.36234604       0.15746143      -0.00161854       0.00155820      -0.00106521
H        1.66921372       1.55729991       0.52824037       0.00008866       0.00002566      -0.00351825
Cl      -1.41268453      -0.53169740       0.94839537       0.00358117       0.00233338      -0.00319675
F        2.11523297       0.07917003      -0.95599891      -0.00104080       0.00027047       0.00045201
H        0.09262288      -0.46149786      -0.95852001       0.00280882       0.00290401      -0.00105743
H        1.00882134      -0.76348556       0.64228534       0.00170441       0.00225433      -0.00136414
N       -0.25851340       2.09269730       1.10199891       0.00029686      -0.00359266       0.00119158
O       -1.20337106       2.72121835       0.64191865       0.00382601       0.00101148       0.00151566
O        0.05509704       2.01413513       2.28428084      -0.00327581      -0.00167088      -0.00335619
N        0.56329231       2.09096374      -1.14621971       0.00151748       0.00129616      -0.00134274
O        1.19669759       3.14280993      -1.20773099      -0.00299363      -0.00441148      -0.00069319
O       -0.17248718       1.64873107      -2.01618470       0.00124637       0.00124987       0.00301407
13
Properties=species:S:1:pos:R:3:mp2_forces:R:3 R1=H R2=H R3=NO2 R4=NO2 lg=Cl nu=Cl mp2_energy=-38278.94537349391 pbc="F F F"
C        0.57646345      -0.07545268       0.01319369       0.00530861      -0.00088776      -0.00801365
C        0.67089907       1.41462400      -0.11704376      -0.00219575       0.00455673       0.00982776
H        1.66081000       1.71892456      -0.44113864       0.00018328      -0.00463142       0.00130979
Cl      -1.67363165      -0.36690740      -0.57250443      -0.00049617       0.00070511       0.00174517
Cl       2.68719865      -0.25304729       0.76308223      -0.00107141       0.00116987       0.00073720
H        0.80984325      -0.66642584      -0.85139264      -0.00441297       0.00140582      -0.00093202
H        0.23288437      -0.50382067       0.93073782       0.00178197       0.00004237       0.00010103
N        0.44242091       2.12322141       1.18169492      -0.00273073       0.00198119       0.00018204
O        0.92674445       3.25157758       1.24488018      -0.00345269      -0.00330906      -0.00080299
O       -0.20882441       1.56744577       2.05624094       0.00381719       0.00155232      -0.00243309
N       -0.24898049       2.04690578      -1.14221592       0.00148712       0.00041597      -0.00494499
O       -1.12075720       2.81537534      -0.76791347       0.00353190      -0.00249682      -0.00112602
O        0.04098962       1.76551945      -2.29683093      -0.00175036      -0.00050432       0.00434976
13
Properties=species:S:1:pos:R:3:mp2_forces:R:3 R1=H R2=H R3=NO2 R4=NO2 lg=Cl nu=Br mp2_energy=-95782.09517722967 pbc="F F F"
C        0.57718089      -0.06975769       0.01291722       0.00542553       0.00716781      -0.00083069
C        0.67051653       1.42315993       0.10468315      -0.00049256       0.00445125      -0.00678461
H        1.66288443       1.74399622       0.40651418       0.00089868      -0.00622444      -0.00004701
Cl      -1.71116706      -0.32708856       0.60490151       0.00132993      -0.00426721       0.00379562
Br       2.79931279      -0.34524557      -0.78146348      -0.00005923      -0.00183207       0.00312114
H        0.20950049      -0.52343043      -0.88332134      -0.00032355       0.00146807      -0.00084930
H        0.78944243      -0.63779140       0.89894050      -0.00552470       0.00002788      -0.00066650
N       -0.23360226       2.06993919       1.13816753      -0.00242819       0.00401818       0.00284988
O       -1.10021521       2.84654823       0.76979652       0.00350151      -0.00395482       0.00154717
O        0.06937773       1.79312344       2.29036548      -0.00092493      -0.00032986      -0.00553688