9
Lattice="1.0 0.0 0.0 0.0 1.0 0.0 0.0 0.0 1.0" Properties=species:S:1:pos:R:3:forces:R:3:mp2_forces:R:3 R1=H R2=H R3=CH3 R4=CH3 leaving_group=Cl nucleophile=Cl rxn=sn2 config=rcc label=H_H_CH3_CH3_Cl_Cl_sn2_rcc conformation=0 reactant_id=H_H_CH3_CH3_Cl_none_-_r product_id=H_H_CH3_CH3_none_Cl_sn2_pc mp2_author_energy=-29302.391748605172 mp2_my_energy=0 hash=59123 address=T id=71 energy=-17372.33216497299 free_energy=-17372.33216497299 cell="(1,0,0), (0,1,0), (0,0,1)" mp2_energy=-17372.33217008555 pbc="F F F"
C        0.09142836      -0.02057665       0.00018700      -0.00383810       0.00153641      -0.00068481      -0.00383222       0.00147547      -0.00068780
C        1.58722280       0.14924827      -0.00111085       0.00020147      -0.00237977      -0.00061630       0.00023470      -0.00237358      -0.00061845
H        2.03195864      -0.84661872      -0.00635447      -0.00043287       0.00066109       0.00360198      -0.00044577       0.00065288       0.00360325
F       -0.53491861       1.24651010      -0.01033438       0.00123778      -0.00105707       0.00337249       0.00121791      -0.00097483       0.00337739
Cl       0.88543890      -3.39675651       0.00603569      -0.00050197      -0.00038193      -0.00016305      -0.00050102      -0.00037940      -0.00016302
H       -0.24798218      -0.56713807      -0.87777751      -0.00113173       0.00148985       0.00279851      -0.00113533       0.00147355       0.00277980
H       -0.24989953      -0.55273097       0.88632969       0.00349898      -0.00246302      -0.00540624       0.00349816      -0.00247792      -0.00538954
H        1.91405155       0.69490750       0.88785996      -0.00213133       0.00382493      -0.00088743      -0.00213341       0.00383011      -0.00087690
H        1.90859158       0.70242064      -0.88742268       0.00309776      -0.00123049      -0.00201515       0.00309698      -0.00122628      -0.00202473
9
Lattice="1.0 0.0 0.0 0.0 1.0 0.0 0.0 0.0 1.0" Properties=species:S:1:pos:R:3:forces:R:3:mp2_forces:R:3 R1=H R2=H R3=CH3 R4=CH3 leaving_group=Cl nucleophile=Cl rxn=sn2 config=rcc label=H_H_CH3_CH3_Cl_Cl_sn2_rcc conformation=0 reactant_id=H_H_CH3_CH3_Cl_none_-_r product_id=H_H_CH3_CH3_none_Cl_sn2_pc mp2_author_energy=-29302.391748605172 mp2_my_energy=0 hash=59123 address=T id=71 energy=-17372.33186777201 free_energy=-17372.33186777201 cell="(1,0,0), (0,1,0), (0,0,1)" stress="-2.328493401539241e-10 5.64411569944566e-09 7.047336953378362e-11 5.64411569944566e-09 3.7776287541962524e-10 3.8064008766492835e-09 7.047336953378362e-11 3.8064008766492835e-09 1.400888661070432e-10" mp2_energy=-17372.33107400915 pbc="F F F"
C        0.09053603      -0.01806165       0.01858955      -0.00046608       0.00056658      -0.00051717      -0.00067165       0.00574280      -0.04092645
C        1.58670680       0.14956591       0.01104852      -0.00032656      -0.00066932      -0.00038062      -0.00383329      -0.00164279       0.01534545
H        2.02957866      -0.84578236       0.06432964      -0.00117167      -0.00118765      -0.00207584       0.00253971      -0.00006466      -0.02429307
F       -0.53517584       1.24710949      -0.05586231       0.00056875       0.00126746       0.00136808       0.00588398      -0.00373875       0.01698167
Cl       0.89036825      -3.40583776      -0.10317130       0.00305179       0.00019334       0.00315043      -0.00027236       0.00579347       0.00747295
H       -0.24866185      -0.60925694      -0.82958221      -0.00104259       0.00208067      -0.00146127       0.01081967      -0.00170348       0.00480426
H       -0.25167940      -0.50316404       0.93121900      -0.00080917      -0.00055705      -0.00115234      -0.01000173      -0.00185505       0.01104906
H        1.91165293       0.74719020       0.86678323       0.00022894      -0.00237621       0.00067165      -0.00131643       0.00877684       0.00235306
H        1.91256593       0.64750274      -0.90594168      -0.00003341       0.00068218       0.00039708      -0.00314791      -0.01130838       0.00721307
9
Lattice="1.0 0.0 0.0 0.0 1.0 0.0 0.0 0.0 1.0" Properties=species:S:1:pos:R:3:forces:R:3:mp2_forces:R:3 R1=H R2=H R3=CH3 R4=CH3 leaving_group=Cl nucleophile=Cl rxn=sn2 config=rcc label=H_H_CH3_CH3_Cl_Cl_sn2_rcc conformation=0 reactant_id=H_H_CH3_CH3_Cl_none_-_r product_id=H_H_CH3_CH3_none_Cl_sn2_pc mp2_author_energy=-29302.391748605172 mp2_my_energy=0 hash=59123 address=T id=71 energy=-17372.330743297607 free_energy=-17372.330743297607 cell="(1,0,0), (0,1,0), (0,0,1)" stress="-9.305057580496457e-10 2.0266474748129817e-08 1.4739855433034837e-09 2.0266474748129817e-08 -5.2148205495915785e-09 1.8611832345309026e-09 1.4739855433034837e-09 1.8611832345309026e-09 1.3078274579073003e-10" mp2_energy=-17372.326627020717 pbc="F F F"
C        0.09132630      -0.01629601       0.04154704      -0.00170982       0.00238714      -0.00005426      -0.00706664       0.02522134      -0.09670792
C        1.58720862       0.15364427       0.02617264      -0.00117209      -0.00209293      -0.00032585      -0.00754990      -0.00100480       0.03237201
H        2.03384625      -0.83539437       0.13580433      -0.00413567      -0.00373858      -0.00223828       0.00544879      -0.00604545      -0.04964453
F       -0.53607073       1.23965624      -0.12225513       0.00195350       0.00434070       0.00046592       0.01248138      -0.01080177       0.03581047
Cl       0.88360422      -3.43041457      -0.23329050       0.01099112      -0.00207347       0.00171399       0.00331032       0.02191863       0.01567460
H       -0.24356719      -0.66710542      -0.76305023      -0.00386067       0.00369764      -0.00040121       0.02022429      -0.00570810       0.00442202
H       -0.25322954      -0.43384662       0.98614046      -0.00278956       0.00321343      -0.00004832      -0.02177529      -0.01010903       0.03609780
H        1.91041732       0.80177100       0.84489973       0.00109601      -0.00432845       0.00065273       0.00131753       0.01790777       0.00776613
H        1.91235625       0.59725107      -0.91855588      -0.00037282      -0.00140548       0.00023528      -0.00639047      -0.03137860       0.01420942
9
Lattice="1.0 0.0 0.0 0.0 1.0 0.0 0.0 0.0 1.0" Properties=species:S:1:pos:R:3:forces:R:3:mp2_forces:R:3 R1=H R2=H R3=CH3 R4=CH3 leaving_group=Cl nucleophile=Cl rxn=sn2 config=rcc label=H_H_CH3_CH3_Cl_Cl_sn2_rcc conformation=0 reactant_id=H_H_CH3_CH3_Cl_none_-_r product_id=H_H_CH3_CH3_none_Cl_sn2_pc mp2_author_energy=-29302.391748605172 mp2_my_energy=0 hash=59123 address=T id=71 energy=-17372.32840403261 free_energy=-17372.32840403261 cell="(1,0,0), (0,1,0), (0,0,1)" stress="-4.801144699944254e-10 2.3490591033425208e-08 2.3786188897860617e-09 2.3490591033425208e-08 -9.897115587321912e-09 8.793193607756115e-10 2.3786188897860617e-09 8.793193607756115e-10 1.418719715412169e-10" mp2_energy=-17372.322322182223 pbc="F F F"
C        0.10297619      -0.03168234       0.05084533      -0.00202537       0.00297075       0.00011059      -0.03180679       0.02559568      -0.12149454
C        1.59508190       0.16879358       0.03397795      -0.00130813      -0.00222882      -0.00034758      -0.00616463      -0.00007287       0.03561115
H        2.06325785      -0.80622641       0.17388644      -0.00470406      -0.00414493      -0.00209631       0.00565175      -0.01028858      -0.05991534
F       -0.54898054       1.20591219      -0.15378154       0.00215195       0.00522617       0.00054909       0.02729804      -0.00431030       0.04705407
Cl       0.80777804      -3.42399153      -0.29363749       0.01273318      -0.00406104       0.00114520       0.01633079       0.01443503       0.01929210
H       -0.21541382      -0.71542657      -0.73215147      -0.00465100       0.00435325      -0.00012431       0.01926292      -0.00363328       0.00435204
H       -0.23586075      -0.42579676       1.00743323      -0.00314625       0.00413558       0.00021216      -0.02879678      -0.00783914       0.04454658
H        1.90297215       0.84720512       0.83368493       0.00139938      -0.00437267       0.00045736       0.00492353       0.02516352       0.01136120
H        1.91408050       0.59047829      -0.92284493      -0.00044971      -0.00187829       0.00009380      -0.00669883      -0.03905005       0.01919274
9
Lattice="1.0 0.0 0.0 0.0 1.0 0.0 0.0 0.0 1.0" Properties=species:S:1:pos:R:3:forces:R:3:mp2_forces:R:3 R1=H R2=H R3=CH3 R4=CH3 leaving_group=Cl nucleophile=Cl rxn=sn2 config=rcc label=H_H_CH3_CH3_Cl_Cl_sn2_rcc conformation=0 reactant_id=H_H_CH3_CH3_Cl_none_-_r product_id=H_H_CH3_CH3_none_Cl_sn2_pc mp2_author_energy=-29302.391748605172 mp2_my_energy=0 hash=59123 address=T id=71 energy=-17372.327380949602 free_energy=-17372.327380949602 cell="(1,0,0), (0,1,0), (0,0,1)" stress="-8.090974067070969e-11 2.043842339364924e-08 2.0053141104927667e-09 2.043842339364924e-08 -9.999504196386598e-09 1.4228437309935646e-09 2.0053141104927667e-09 1.4228437309935646e-09 2.7580409637072426e-10" mp2_energy=-17372.321141207118 pbc="F F F"
C        0.10928062      -0.04084127       0.04859475      -0.00177232       0.00264311      -0.00004299      -0.04395619       0.02068760      -0.11915984
C        1.59915226       0.17579595       0.03399706      -0.00111766      -0.00186940      -0.00035078      -0.00470049      -0.00126459       0.03303764
H        2.07771220      -0.79419393       0.17348838      -0.00405867      -0.00358310      -0.00209147       0.00507087      -0.00964851      -0.05804967
F       -0.55563184       1.19070955      -0.15153950       0.00185868       0.00470872       0.00079518       0.03314930       0.00347857       0.04773398
Cl       0.76841762      -3.41217095      -0.28670607       0.01105964      -0.00410340       0.00158704       0.02329863       0.00269931       0.01907128
H       -0.20117247      -0.72504247      -0.73696176      -0.00408015       0.00413363      -0.00050214       0.01587097       0.00034676       0.00699152
H       -0.22597081      -0.44323474       1.00299322      -0.00274353       0.00329358      -0.00008916      -0.02919705      -0.00537800       0.03943640
H        1.89886257       0.85600883       0.83523650       0.00120749      -0.00391990       0.00053590       0.00603292       0.02575391       0.01197503
H        1.91524135       0.60223463      -0.92169013      -0.00035348      -0.00130325       0.00015842      -0.00556896      -0.03667504       0.01896365
9
Lattice="1.0 0.0 0.0 0.0 1.0 0.0 0.0 0.0 1.0" Properties=species:S:1:pos:R:3:forces:R:3:mp2_forces:R:3 R1=H R2=H R3=CH3 R4=CH3 leaving_group=Cl nucleophile=Cl rxn=sn2 config=rcc label=H_H_CH3_CH3_Cl_Cl_sn2_rcc conformation=0 reactant_id=H_H_CH3_CH3_Cl_none_-_r product_id=H_H_CH3_CH3_none_Cl_sn2_pc mp2_author_energy=-29302.391748605172 mp2_my_energy=0 hash=59123 address=T id=71 energy=-17372.32707555146 free_energy=-17372.32707555146 cell="(1,0,0), (0,1,0), (0,0,1)" stress="4.063633811315936e-11 1.895138486034821e-08 1.76724446470185e-09 1.895138486034821e-08 -9.687643379641619e-09 2.0533479128720573e-09 1.76724446470185e-09 2.0533479128720573e-09 4.0127481890493795e-10" mp2_energy=-17372.32085834555 pbc="F F F"
C        0.11169274      -0.04441886       0.04648720      -0.00164827       0.00246645      -0.00017365      -0.04851963       0.01827695      -0.11574943
C        1.60067417       0.17834083       0.03336476      -0.00103094      -0.00171445      -0.00037226      -0.00411186      -0.00215264       0.03132250
H        2.08299507      -0.79017279       0.17005491      -0.00375302      -0.00334370      -0.00223344       0.00488892      -0.00907962      -0.05626931
F       -0.55815467       1.18550074      -0.14742894       0.00172051       0.00445904       0.00100205       0.03517422       0.00717305       0.04720978
Cl       0.75366074      -3.40680732      -0.27747634       0.01024793      -0.00396295       0.00208000       0.02599428      -0.00252873       0.01872697
H       -0.19595576      -0.72577881      -0.74257217      -0.00379505       0.00410480      -0.00082486       0.01418994       0.00183252       0.00868749
H       -0.22202085      -0.45358120       0.99854497      -0.00254788       0.00273627      -0.00034893      -0.02894728      -0.00412637       0.03560580
H        1.89729236       0.85694724       0.83710528       0.00111055      -0.00382869       0.00064087       0.00621647       0.02526517       0.01210867
H        1.91570769       0.60923577      -0.92066722      -0.00030384      -0.00091678       0.00023023      -0.00488505      -0.03466034       0.01835753
9
Lattice="1.0 0.0 0.0 0.0 1.0 0.0 0.0 0.0 1.0" Properties=species:S:1:pos:R:3:forces:R:3:mp2_forces:R:3 R1=H R2=H R3=CH3 R4=CH3 leaving_group=Cl nucleophile=Cl rxn=sn2 config=rcc label=H_H_CH3_CH3_Cl_Cl_sn2_rcc conformation=0 reactant_id=H_H_CH3_CH3_Cl_none_-_r product_id=H_H_CH3_CH3_none_Cl_sn2_pc mp2_author_energy=-29302.391748605172 mp2_my_energy=0 hash=59123 address=T id=71 energy=-17372.32770305901 free_energy=-17372.32770305901 cell="(1,0,0), (0,1,0), (0,0,1)" stress="2.974168602310938e-10 1.8592693309960895e-08 9.264409624474158e-10 1.8592693309960895e-08 -1.612478407833667e-08 6.552873061828609e-09 9.264409624474158e-10 6.552873061828609e-09 8.762395941141775e-10" mp2_energy=-17372.323871270997 pbc="F F F"
C        0.11437458      -0.04906176       0.03005612      -0.00162584       0.00275738      -0.00093401      -0.05204120       0.00899350      -0.07843256
C        1.60235918       0.18051101       0.02564320      -0.00101560      -0.00137473      -0.00063774      -0.00207726      -0.00634962       0.01973240
H        2.08744510      -0.79033010       0.13243316      -0.00380342      -0.00325584      -0.00482128       0.00421221      -0.00704994      -0.04359995
F       -0.56138583       1.18558698      -0.10456089       0.00172679       0.00486263       0.00178750       0.03611383       0.01622750       0.03519209
Cl       0.73866645      -3.39583061      -0.19465405       0.01007380      -0.00635644       0.00574310       0.02795789      -0.00666753       0.01490491
H       -0.19248263      -0.69187735      -0.79115854      -0.00355510       0.00546646      -0.00246424       0.00808863      -0.00282510       0.01540146
H       -0.21551630      -0.50690839       0.96102255      -0.00266308       0.00169456      -0.00175783      -0.02423267       0.00116765       0.01222630
H        1.89502507       0.83358897       0.85173584       0.00114720      -0.00555881       0.00191573       0.00335528       0.01632797       0.01165313
H        1.91740589       0.64358684      -0.91310493      -0.00028475       0.00176479       0.00116877      -0.00137671      -0.01982444       0.01292222
9
Lattice="1.0 0.0 0.0 0.0 1.0 0.0 0.0 0.0 1.0" Properties=species:S:1:pos:R:3:forces:R:3:mp2_forces:R:3 R1=H R2=H R3=CH3 R4=CH3 leaving_group=Cl nucleophile=Cl rxn=sn2 config=rcc label=H_H_CH3_CH3_Cl_Cl_sn2_rcc conformation=0 reactant_id=H_H_CH3_CH3_Cl_none_-_r product_id=H_H_CH3_CH3_none_Cl_sn2_pc mp2_author_energy=-29302.391748605172 mp2_my_energy=0 hash=59123 address=T id=71 energy=-17372.317146794117 free_energy=-17372.317146794117 cell="(1,0,0), (0,1,0), (0,0,1)" stress="-1.6777013502507632e-09 2.2962051409500524e-08 -2.1752188897947406e-09 2.2962051409500524e-08 -3.188923028964563e-07 -9.970985479015243e-09 -2.1752188897947406e-09 -9.970985479015243e-09 -1.615291991772536e-09" mp2_energy=-17372.313323658283 pbc="F F F"
C        0.11487585      -0.06795312       0.01846831      -0.00223766       0.01999557       0.00151600      -0.04713953       0.01704416      -0.06618027
C        1.60335853       0.16424889       0.01958670      -0.00183925       0.01525001       0.00134980      -0.01400474       0.00319664       0.01219400
H        2.09001563      -0.80369794       0.13779302      -0.01899504       0.00244999      -0.01866488      -0.00280452       0.00107254      -0.04346784
F       -0.56212214       1.17210021      -0.05059873      -0.00726626       0.01664154      -0.01674387       0.02287176       0.07019788       0.01290185
Cl       0.73783508      -3.25831095      -0.13825511       0.01443565      -0.11540397      -0.00403808       0.03637149      -0.15006345       0.00921551
H       -0.19637210      -0.66610102      -0.83407527       0.00251287       0.00705655       0.00879630       0.00837572       0.00872992       0.03227800
H       -0.21251632      -0.57470549       0.92384651      -0.00256350       0.03170873       0.00863272      -0.00899421       0.01765906       0.00886159
H        1.88679038       0.82565166       0.84253885       0.01480285      -0.00393173       0.01137952       0.00324660       0.01488802       0.01098682
H        1.92402660       0.61803335      -0.92189184       0.00115032       0.02623330       0.00777249       0.00207742       0.01727523       0.02321032
9
Lattice="1.0 0.0 0.0 0.0 1.0 0.0 0.0 0.0 1.0" Properties=species:S:1:pos:R:3:forces:R:3:mp2_forces:R:3 R1=H R2=H R3=CH3 R4=CH3 leaving_group=Cl nucleophile=Cl rxn=sn2 config=rcc label=H_H_CH3_CH3_Cl_Cl_sn2_rcc conformation=0 reactant_id=H_H_CH3_CH3_Cl_none_-_r product_id=H_H_CH3_CH3_none_Cl_sn2_pc mp2_author_energy=-29302.391748605172 mp2_my_energy=0 hash=59123 address=T id=71 energy=-17372.273305934395 free_energy=-17372.273305934395 cell="(1,0,0), (0,1,0), (0,0,1)" stress="-1.5541278979013468e-08 5.464228452971558e-08 9.85157713752782e-12 5.464228452971558e-08 -4.032333998124964e-07 -2.4545268973172407e-08 9.85157713752782e-12 -2.4545268973172407e-08 -3.6209068919309447e-10" mp2_energy=-17372.221429864017 pbc="F F F"
C        0.11854848      -0.10471521       0.01568519      -0.00652648       0.03866245       0.00582828      -0.06709804      -0.01688956      -0.10306813
C        1.60647548       0.13518613       0.01706204      -0.00596512       0.03086965       0.00395894       0.02657156       0.13852020       0.04917404
H        2.12419416      -0.80923276       0.17376698      -0.08150442      -0.02452077      -0.03587622      -0.07498998       0.01623946      -0.06120050
F       -0.54820866       1.14212051      -0.01840267      -0.05462843       0.01442977      -0.03574086      -0.04900587       0.21050829       0.00551286
Cl       0.71400754      -3.04265568      -0.13106161       0.03296276      -0.12968556      -0.01203154       0.08021672      -0.59965387      -0.00849392
H       -0.20212175      -0.67788503      -0.85082384       0.02749982      -0.00629581       0.02211012       0.01557549       0.10062140       0.08107269
H       -0.20846068      -0.63369741       0.90749203       0.00650520       0.05017429       0.01661451      -0.00457817       0.07560117       0.00554718
H        1.85928792       0.83311150       0.82059270       0.06353926      -0.00822293       0.02325372       0.04589248       0.03593202      -0.01129985
H        1.92216902       0.56703355      -0.93689838       0.01811740       0.03458889       0.01188305       0.02741580       0.03912090       0.04275563
9
Lattice="1.0 0.0 0.0 0.0 1.0 0.0 0.0 0.0 1.0" Properties=species:S:1:pos:R:3:forces:R:3:mp2_forces:R:3 R1=H R2=H R3=CH3 R4=CH3 leaving_group=Cl nucleophile=Cl rxn=sn2 config=rcc label=H_H_CH3_CH3_Cl_Cl_sn2_rcc conformation=0 reactant_id=H_H_CH3_CH3_Cl_none_-_r product_id=H_H_CH3_CH3_none_Cl_sn2_pc mp2_author_energy=-29302.391748605172 mp2_my_energy=0 hash=59123 address=T id=71 energy=-17372.180603765937 free_energy=-17372.180603765937 cell="(1,0,0), (0,1,0), (0,0,1)" stress="-4.084965789576205e-08 1.1279034400822516e-07 2.9152434085159255e-08 1.1279034400822516e-07 -1.0733410138680275e-06 -3.678654342452079e-08 2.9152434085159255e-08 -3.678654342452079e-08 6.42583938324927e-08" mp2_energy=-17371.9974918772 pbc="F F F"
C        0.12688341      -0.15307678       0.00853079      -0.04387043       0.17206051       0.00784010      -0.17051343      -0.07440815      -0.05855167
C        1.61403954       0.09700897       0.01217373      -0.02705591       0.10300461       0.00073584       0.07174096       0.28009574       0.10251356
H        2.22584004      -0.77835984       0.21897860      -0.29744375      -0.12437955      -0.05025214      -0.31762735      -0.04214680      -0.10203963
F       -0.48068587       1.12353044       0.02611617      -0.24088401       0.02459653      -0.02193157      -0.30242895       0.46382468      -0.00114229
Cl       0.67159913      -2.88050404      -0.11661767       0.06711874      -0.28132416      -0.00003311       0.17141619      -1.23164742      -0.05323265
H       -0.23582942      -0.67053099      -0.87822431       0.11410602      -0.02635596       0.04670143       0.11374773       0.18757915       0.16628388
H       -0.21602994      -0.69656312       0.88689387       0.08044362       0.03139032      -0.02615911       0.04731175       0.19425099      -0.06955274
H        1.78022597       0.84400812       0.79138021       0.23694541       0.04004526       0.03330896       0.24420129       0.14276693      -0.00502446
H        1.89984866       0.52375283      -0.95181895       0.11064032       0.06096244       0.00978959       0.14215181       0.07968488       0.02074601
9
Lattice="1.0 0.0 0.0 0.0 1.0 0.0 0.0 0.0 1.0" Properties=species:S:1:pos:R:3:forces:R:3:mp2_forces:R:3 R1=H R2=H R3=CH3 R4=CH3 leaving_group=Cl nucleophile=Cl rxn=sn2 config=rcc label=H_H_CH3_CH3_Cl_Cl_sn2_rcc conformation=0 reactant_id=H_H_CH3_CH3_Cl_none_-_r product_id=H_H_CH3_CH3_none_Cl_sn2_pc mp2_author_energy=-29302.391748605172 mp2_my_energy=0 hash=59123 address=T id=71 energy=-17371.92154636376 free_energy=-17371.92154636376 cell="(1,0,0), (0,1,0), (0,0,1)" stress="-3.731146471474616e-08 1.7265294795839782e-07 1.1181746121222431e-08 1.7265294795839782e-07 -2.8976054024822048e-06 -1.6861798687092265e-07 1.1181746121222431e-08 -1.6861798687092265e-07 3.098114714153766e-07" mp2_energy=-17371.62838002208 pbc="F F F"
C        0.14351061      -0.21843549       0.00558085      -0.42612935       1.22781876       0.03802565      -0.62769731       0.60632228       0.02644416
C        1.62427419       0.05781276       0.01196716      -0.06044708       0.18906499      -0.00262559       0.13153736       0.29324816       0.15478959
H        2.33874288      -0.73104412       0.23889168      -0.52761348      -0.29084036      -0.03320522      -0.52619139      -0.19841324      -0.11347922
F       -0.38920034       1.11419073       0.03475557      -0.40746426      -0.13636492       0.00079329      -0.55143840       0.50630079      -0.01161894
Cl       0.64637499      -2.77340020      -0.11730944       0.12903007      -0.78855229      -0.02326793       0.28339426      -1.85760081      -0.09683594
H       -0.27936894      -0.66034868      -0.89584295       0.29114724      -0.27234589       0.13883035       0.29286532       0.08573733       0.29802477
H       -0.24661711      -0.70855609       0.89697950       0.24123871      -0.15280842      -0.16509766       0.18879694       0.14385669      -0.23560025
H        1.69013537       0.82928881       0.77819499       0.53064043       0.12766293       0.03567383       0.52490899       0.26520474       0.01244341
H        1.85803987       0.49975787      -0.95580494       0.22959770       0.09636521       0.01087328       0.28382423       0.15534407      -0.03416758
9
Lattice="1.0 0.0 0.0 0.0 1.0 0.0 0.0 0.0 1.0" Properties=species:S:1:pos:R:3:forces:R:3:mp2_forces:R:3 R1=H R2=H R3=CH3 R4=CH3 leaving_group=Cl nucleophile=Cl rxn=sn2 config=rcc label=H_H_CH3_CH3_Cl_Cl_sn2_rcc conformation=0 reactant_id=H_H_CH3_CH3_Cl_none_-_r product_id=H_H_CH3_CH3_none_Cl_sn2_pc mp2_author_energy=-29302.391748605172 mp2_my_energy=0 hash=59123 address=T id=71 energy=-17371.17395140401 free_energy=-17371.17395140401 cell="(1,0,0), (0,1,0), (0,0,1)" stress="-2.894919999024454e-07 -8.412466695323724e-07 -1.48838644965583e-07 -8.412466695323724e-07 -1.4425175658295572e-06 -2.05726936752666e-07 -1.48838644965583e-07 -2.05726936752666e-07 -1.2779519528567492e-07" mp2_energy=-17370.89036986708 pbc="F F F"
C        0.19612120      -0.37028822       0.00108344      -1.14187789       3.61254241       0.11599947      -1.52770092       2.84655843       0.12651776
C        1.63182450       0.03440048       0.01220219       0.09413162       0.12932641       0.00415538       0.49009649       0.12465164       0.21673113
H        2.40393230      -0.69505245       0.24318770      -0.37264708      -0.33587579       0.00223425      -0.33383437      -0.26457205      -0.08565634
F       -0.33887160       1.13102186       0.03474380       0.03667936      -1.28206062      -0.01234001      -0.38908815      -0.24855402      -0.04473687
Cl       0.63044671      -2.67580278      -0.11457827       0.11072858      -0.99607868      -0.04748569       0.41075968      -2.32730767      -0.12498170
H       -0.31543270      -0.62665053      -0.91305130       0.26696246      -0.74535667      -0.10966464       0.31403922      -0.28347334       0.14498292
H       -0.27638589      -0.68966242       0.91732787       0.24111936      -0.58104376       0.00523707       0.22663125      -0.20118299      -0.15000181
H        1.62450906       0.81365622       0.77367656       0.56176951       0.12060892       0.01651127       0.55347534       0.18474179      -0.06918167
H        1.82974793       0.48764344      -0.95717954       0.20313409       0.07793778       0.02535290       0.25562145       0.16913820      -0.01367341
9
Lattice="1.0 0.0 0.0 0.0 1.0 0.0 0.0 0.0 1.0" Properties=species:S:1:pos:R:3:forces:R:3:mp2_forces:R:3 R1=H R2=H R3=CH3 R4=CH3 leaving_group=Cl nucleophile=Cl rxn=sn2 config=rcc label=H_H_CH3_CH3_Cl_Cl_sn2_rcc conformation=0 reactant_id=H_H_CH3_CH3_Cl_none_-_r product_id=H_H_CH3_CH3_none_Cl_sn2_pc mp2_author_energy=-29302.391748605172 mp2_my_energy=0 hash=59123 address=T id=71 energy=-17370.50054351509 free_energy=-17370.50054351509 cell="(1,0,0), (0,1,0), (0,0,1)" stress="-6.054925721727072e-07 -1.3469855926253056e-06 -1.742672467033363e-07 -1.3469855926253056e-06 1.2756702240170477e-06 -4.53883542019695e-08 -1.742672467033363e-07 -4.53883542019695e-08 -6.626981203478881e-07" mp2_energy=-17370.306209927705 pbc="F F F"
C        0.24543017      -0.52605701      -0.00403111      -0.43130021       1.63901615       0.05669827      -1.06939123       1.60588961       0.09404761
C        1.62769411       0.02884686       0.01206603       0.11684210       0.16023799       0.00617140       0.66427814      -0.04171235       0.21731929
H        2.41999788      -0.68059454       0.24315202      -0.18615870      -0.16636953       0.00455362      -0.02747952      -0.20439770      -0.05976716
F       -0.34049811       1.18628736       0.03531536       0.12088615      -1.07446791      -0.03280423      -0.53779791       0.33545405      -0.04021312
Cl       0.62568005      -2.63281719      -0.11257288      -0.02988769      -0.21886118      -0.01903232       0.33470427      -1.54320580      -0.08516904
H       -0.32695048      -0.59448330      -0.90828014      -0.05890374      -0.30819915      -0.27870897       0.14905867      -0.17922416      -0.04212289
H       -0.28680556      -0.66463417       0.91717421      -0.04207942      -0.23987833       0.21996458       0.08932740      -0.17621395       0.04347364
H        1.60030294       0.80848550       0.77290324       0.36935820       0.13420843       0.04677017       0.28137757       0.06584256      -0.18268054
H        1.82104052       0.48423208      -0.95831428       0.14124331       0.07431353      -0.00361253       0.11592262       0.13756776       0.05511222
9
Lattice="1.0 0.0 0.0 0.0 1.0 0.0 0.0 0.0 1.0" Properties=species:S:1:pos:R:3:forces:R:3:mp2_forces:R:3 R1=H R2=H R3=CH3 R4=CH3 leaving_group=Cl nucleophile=Cl rxn=sn2 config=rcc label=H_H_CH3_CH3_Cl_Cl_sn2_rcc conformation=0 reactant_id=H_H_CH3_CH3_Cl_none_-_r product_id=H_H_CH3_CH3_none_Cl_sn2_pc mp2_author_energy=-29302.391748605172 mp2_my_energy=0 hash=59123 address=T id=71 energy=-17370.4943592444 free_energy=-17370.4943592444 cell="(1,0,0), (0,1,0), (0,0,1)" stress="1.7653328927519637e-09 1.1951156890574814e-08 5.8639050016129144e-09 1.1951156890574814e-08 -9.329239035875482e-09 -7.985638017483574e-09 5.8639050016129144e-09 -7.985638017483574e-09 3.7816920521666414e-09" mp2_energy=-17370.275939573585 pbc="F F F"
C        0.30753041      -0.76200806      -0.01226133       0.00212931      -0.00728650      -0.00034823      -0.38552862       0.25685766       0.03841114
C        1.61089884       0.00582589       0.01119436      -0.00024201      -0.00104332      -0.00045537       0.56041807      -0.28476020       0.11746602
H        2.44668949      -0.65668642       0.24268035      -0.00010809       0.00174140       0.00599753       0.25957060      -0.18511739       0.00551742
F       -0.35803869       1.34074044       0.04015309      -0.00193268       0.00593261       0.00436498      -0.66538402       0.87137596      -0.00696950
Cl       0.62998757      -2.60116261      -0.10996888       0.00051757       0.00133063      -0.00419458       0.14567398      -0.48929673      -0.04033175
H       -0.31854739      -0.55004496      -0.86815724      -0.00064377       0.00325681       0.00260757       0.18028773      -0.02020763       0.10567810
H       -0.28076433      -0.63011984       0.88562230       0.00202165      -0.00053908       0.00012376       0.12500118      -0.10815710      -0.05695812
H        1.54723395       0.78934515       0.76603308      -0.00470284       0.00306871      -0.00606250      -0.13415129      -0.08069670      -0.33196757
H        1.80090167       0.47337601      -0.95788327       0.00296085      -0.00646126      -0.00203316      -0.08588763       0.04000213       0.16915425
9