9
Lattice="1.0 0.0 0.0 0.0 1.0 0.0 0.0 0.0 1.0" Properties=species:S:1:pos:R:3:forces:R:3 R1=H R2=H R3=CH3 R4=CH3 leaving_group=Cl nucleophile=Cl rxn=sn2 config=rcc label=H_H_CH3_CH3_Cl_Cl_sn2_rcc conformation=0 reactant_id=H_H_CH3_CH3_Cl_none_-_r product_id=H_H_CH3_CH3_none_Cl_sn2_pc mp2_author_energy=-29302.391748605172 mp2_my_energy=0 hash=59123 address=T id=71 energy=-17372.33216497299 free_energy=-17372.33216497299 cell="(1,0,0), (0,1,0), (0,0,1)" pbc="F F F"
C        0.09142836      -0.02057665       0.00018700      -0.00383810       0.00153641      -0.00068481
C        1.58722280       0.14924827      -0.00111085       0.00020147      -0.00237977      -0.00061630
H        2.03195864      -0.84661872      -0.00635447      -0.00043287       0.00066109       0.00360198
F       -0.53491861       1.24651010      -0.01033438       0.00123778      -0.00105707       0.00337249
Cl       0.88543890      -3.39675651       0.00603569      -0.00050197      -0.00038193      -0.00016305
H       -0.24798218      -0.56713807      -0.87777751      -0.00113173       0.00148985       0.00279851
H       -0.24989953      -0.55273097       0.88632969       0.00349898      -0.00246302      -0.00540624
H        1.91405155       0.69490750       0.88785996      -0.00213133       0.00382493      -0.00088743
H        1.90859158       0.70242064      -0.88742268       0.00309776      -0.00123049      -0.00201515
9
Lattice="1.0 0.0 0.0 0.0 1.0 0.0 0.0 0.0 1.0" Properties=species:S:1:pos:R:3:forces:R:3 R1=H R2=H R3=CH3 R4=CH3 leaving_group=Cl nucleophile=Cl rxn=sn2 config=rcc label=H_H_CH3_CH3_Cl_Cl_sn2_rcc conformation=0 reactant_id=H_H_CH3_CH3_Cl_none_-_r product_id=H_H_CH3_CH3_none_Cl_sn2_pc mp2_author_energy=-29302.391748605172 mp2_my_energy=0 hash=59123 address=T id=71 energy=-17372.33153708803 free_energy=-17372.33153708803 cell="(1,0,0), (0,1,0), (0,0,1)" stress="-1.2163327270425682e-10 1.9588970167347036e-09 -2.1656988537170892e-10 1.9588970167347036e-09 8.258589407936882e-10 6.298122566391464e-09 -2.1656988537170892e-10 6.298122566391464e-09 2.3744250400470175e-10" pbc="F F F"
C        0.08964711      -0.01808903       0.01654248      -0.00014682       0.00015782      -0.00083318
C        1.58612076       0.14739017       0.01066668      -0.00010351      -0.00026452      -0.00061751
H        2.02865605      -0.84817188       0.06037650      -0.00049199      -0.00065656      -0.00335472
F       -0.53350070       1.24877104      -0.04908231       0.00015421       0.00056341       0.00197814
Cl       0.89567366      -3.39888802      -0.09508577       0.00108588       0.00041176       0.00508044
H       -0.25038086      -0.60416401      -0.83462637      -0.00043732       0.00217889      -0.00224459
H       -0.25455071      -0.50736353       0.92683934      -0.00020913      -0.00192833      -0.00189568
H        1.91158016       0.74383758       0.86726959       0.00022312      -0.00286714       0.00117312
H        1.91264604       0.64594327      -0.90548771      -0.00007445       0.00240466       0.00071400
9
Lattice="1.0 0.0 0.0 0.0 1.0 0.0 0.0 0.0 1.0" Properties=species:S:1:pos:R:3:forces:R:3 R1=H R2=H R3=CH3 R4=CH3 leaving_group=Cl nucleophile=Cl rxn=sn2 config=rcc label=H_H_CH3_CH3_Cl_Cl_sn2_rcc conformation=0 reactant_id=H_H_CH3_CH3_Cl_none_-_r product_id=H_H_CH3_CH3_none_Cl_sn2_pc mp2_author_energy=-29302.391748605172 mp2_my_energy=0 hash=59123 address=T id=71 energy=-17372.329339333293 free_energy=-17372.329339333293 cell="(1,0,0), (0,1,0), (0,0,1)" stress="-3.8204739571932713e-10 1.1930258781665234e-08 -1.4338925557542152e-10 1.1930258781665234e-08 -8.909669655028856e-09 9.073261920524767e-09 -1.4338925557542152e-10 9.073261920524767e-09 7.197560700776133e-10" pbc="F F F"
C        0.08616309      -0.01206329       0.03811479      -0.00091247       0.00170676      -0.00083139
C        1.58362798       0.14471286       0.02597112      -0.00068334      -0.00089888      -0.00081275
H        2.02235268      -0.84758222       0.13694705      -0.00272636      -0.00310094      -0.00874707
F       -0.52940209       1.25178831      -0.10449591       0.00102021       0.00266363      -0.00080896
Cl       0.91585704      -3.41350206      -0.22200251       0.00648149      -0.00328387       0.00706528
H       -0.25366070      -0.64900021      -0.77517711      -0.00184409       0.00235801      -0.00107976
H       -0.26329123      -0.43977040       0.97785880      -0.00178453       0.00209054      -0.00096579
H        1.91045972       0.79618275       0.84123435       0.00164172      -0.00787969       0.00429426
H        1.91378503       0.57849986      -0.92103814      -0.00119264       0.00634444       0.00188620
9
Lattice="1.0 0.0 0.0 0.0 1.0 0.0 0.0 0.0 1.0" Properties=species:S:1:pos:R:3:forces:R:3 R1=H R2=H R3=CH3 R4=CH3 leaving_group=Cl nucleophile=Cl rxn=sn2 config=rcc label=H_H_CH3_CH3_Cl_Cl_sn2_rcc conformation=0 reactant_id=H_H_CH3_CH3_Cl_none_-_r product_id=H_H_CH3_CH3_none_Cl_sn2_pc mp2_author_energy=-29302.391748605172 mp2_my_energy=0 hash=59123 address=T id=71 energy=-17372.322632024407 free_energy=-17372.322632024407 cell="(1,0,0), (0,1,0), (0,0,1)" stress="2.0931547473502057e-09 2.256877664356373e-08 -1.2688012852697455e-09 2.256877664356373e-08 -4.5368717418647536e-08 1.477635458298242e-08 -1.2688012852697455e-09 1.477635458298242e-08 3.458867443999367e-10" pbc="F F F"
C        0.08879486      -0.01941493       0.05396610      -0.00156261       0.00473760      -0.00038846
C        1.58577836       0.14591037       0.03822124      -0.00146795      -0.00013213      -0.00078091
H        2.03379931      -0.82732994       0.23998313      -0.00589679      -0.00932813      -0.02877872
F       -0.53223036       1.23809854      -0.11767419       0.00189499       0.00431757      -0.01552270
Cl       0.89307678      -3.38962314      -0.33023159       0.01241115      -0.01693764       0.01088763
H       -0.24783314      -0.67806226      -0.74246478      -0.00152427      -0.00391944       0.00642755
H       -0.25764340      -0.42463492       1.00511614      -0.00404053       0.01654016       0.00394583
H        1.89813518       0.87418938       0.79225833       0.00614678      -0.02174925       0.01838214
H        1.92401391       0.49013249      -0.94176192      -0.00596076       0.02647125       0.00582766
9
Lattice="1.0 0.0 0.0 0.0 1.0 0.0 0.0 0.0 1.0" Properties=species:S:1:pos:R:3:forces:R:3 R1=H R2=H R3=CH3 R4=CH3 leaving_group=Cl nucleophile=Cl rxn=sn2 config=rcc label=H_H_CH3_CH3_Cl_Cl_sn2_rcc conformation=0 reactant_id=H_H_CH3_CH3_Cl_none_-_r product_id=H_H_CH3_CH3_none_Cl_sn2_pc mp2_author_energy=-29302.391748605172 mp2_my_energy=0 hash=59123 address=T id=71 energy=-17372.310687086967 free_energy=-17372.310687086967 cell="(1,0,0), (0,1,0), (0,0,1)" stress="7.825988871426622e-09 2.2855407753184125e-08 -3.3872992217259338e-09 2.2855407753184125e-08 -7.315424337921967e-08 1.9598157373530527e-08 -3.3872992217259338e-09 1.9598157373530527e-08 -1.081402965561917e-09" pbc="F F F"
C        0.09139999      -0.02874670       0.05681941      -0.00120576       0.00623893       0.00005365
C        1.58844670       0.14516433       0.04109959      -0.00191604       0.00142636      -0.00051525
H        2.04522896      -0.80662905       0.31139098      -0.00762048      -0.01712220      -0.04804479
F       -0.53548143       1.22980672      -0.08655961       0.00200349       0.00414123      -0.03241207
Cl       0.87073852      -3.35292714      -0.36547159       0.01296291      -0.02667682       0.01347272
H       -0.24623689      -0.67118923      -0.75183742       0.00129819      -0.01413395       0.01444678
H       -0.25012228      -0.45537355       1.00018567      -0.00455596       0.03035168       0.01047864
H        1.88456498       0.92618606       0.74748294       0.00963247      -0.03266670       0.03493958
H        1.93735296       0.42297414      -0.95569751      -0.01059882       0.04844146       0.00758074
9
Lattice="1.0 0.0 0.0 0.0 1.0 0.0 0.0 0.0 1.0" Properties=species:S:1:pos:R:3:forces:R:3 R1=H R2=H R3=CH3 R4=CH3 leaving_group=Cl nucleophile=Cl rxn=sn2 config=rcc label=H_H_CH3_CH3_Cl_Cl_sn2_rcc conformation=0 reactant_id=H_H_CH3_CH3_Cl_none_-_r product_id=H_H_CH3_CH3_none_Cl_sn2_pc mp2_author_energy=-29302.391748605172 mp2_my_energy=0 hash=59123 address=T id=71 energy=-17372.293154486535 free_energy=-17372.293154486535 cell="(1,0,0), (0,1,0), (0,0,1)" stress="1.4649628833482577e-08 2.0796955340000196e-08 -5.086316306356589e-09 2.0796955340000196e-08 -9.511047366971018e-08 2.368314357240061e-08 -5.086316306356589e-09 2.368314357240061e-08 -2.498786882917548e-09" pbc="F F F"
C        0.09254987      -0.03665859       0.05766880      -0.00055031       0.00717947       0.00036461
C        1.59066437       0.14247233       0.04226913      -0.00234045       0.00298521      -0.00042891
H        2.05437712      -0.78464687       0.37685229      -0.00881662      -0.02607323      -0.06280117
F       -0.53762888       1.22470777      -0.04641097       0.00175178       0.00452702      -0.04680786
Cl       0.85635967      -3.31590852      -0.38791250       0.01211950      -0.03378204       0.01544377
H       -0.24874207      -0.65433979      -0.76811996       0.00421642      -0.02376422       0.02036624
H       -0.24495280      -0.49204718       0.98855164      -0.00384955       0.04102178       0.01702745
H        1.87224724       0.96960160       0.70031485       0.01153877      -0.03914035       0.05061139
H        1.95101700       0.35608485      -0.96580084      -0.01406953       0.06704636       0.00622446
9
Lattice="1.0 0.0 0.0 0.0 1.0 0.0 0.0 0.0 1.0" Properties=species:S:1:pos:R:3:forces:R:3 R1=H R2=H R3=CH3 R4=CH3 leaving_group=Cl nucleophile=Cl rxn=sn2 config=rcc label=H_H_CH3_CH3_Cl_Cl_sn2_rcc conformation=0 reactant_id=H_H_CH3_CH3_Cl_none_-_r product_id=H_H_CH3_CH3_none_Cl_sn2_pc mp2_author_energy=-29302.391748605172 mp2_my_energy=0 hash=59123 address=T id=71 energy=-17372.269683562896 free_energy=-17372.269683562896 cell="(1,0,0), (0,1,0), (0,0,1)" stress="2.0225564067426637e-08 1.9496300329434662e-08 -5.881339653152944e-09 1.9496300329434662e-08 -1.1701384781735452e-07 2.5570534419076858e-08 -5.881339653152944e-09 2.5570534419076858e-08 -2.9468080616858707e-09" pbc="F F F"
C        0.09280156      -0.04364671       0.05789138      -0.00000952       0.00826518       0.00064932
C        1.59286212       0.13903554       0.04300987      -0.00271112       0.00455600      -0.00050594
H        2.06288310      -0.75769488       0.44351816      -0.00974594      -0.03479542      -0.07181599
F       -0.53912065       1.22062023       0.00089828       0.00089308       0.00610520      -0.05729498
Cl       0.84577383      -3.28147501      -0.40702565       0.01138691      -0.04092679       0.01629227
H       -0.25371174      -0.63031701      -0.78771584       0.00640756      -0.03094024       0.02388330
H       -0.24152448      -0.53248527       0.97222866      -0.00255409       0.04841215       0.02281349
H        1.86050329       1.01066786       0.64689003       0.01250715      -0.04105123       0.06356055
H        1.96542449       0.28456083      -0.97228244      -0.01617402       0.08037515       0.00241798
9
Lattice="1.0 0.0 0.0 0.0 1.0 0.0 0.0 0.0 1.0" Properties=species:S:1:pos:R:3:forces:R:3 R1=H R2=H R3=CH3 R4=CH3 leaving_group=Cl nucleophile=Cl rxn=sn2 config=rcc label=H_H_CH3_CH3_Cl_Cl_sn2_rcc conformation=0 reactant_id=H_H_CH3_CH3_Cl_none_-_r product_id=H_H_CH3_CH3_none_Cl_sn2_pc mp2_author_energy=-29302.391748605172 mp2_my_energy=0 hash=59123 address=T id=71 energy=-17372.24434323527 free_energy=-17372.24434323527 cell="(1,0,0), (0,1,0), (0,0,1)" stress="2.1635631551242723e-08 2.0911750668467806e-08 -5.552258961486478e-09 2.0911750668467806e-08 -1.5436440310659915e-07 2.1742197793297148e-08 -5.552258961486478e-09 2.1742197793297148e-08 -3.29812878877255e-09" pbc="F F F"
C        0.09248289      -0.04992933       0.05785368       0.00002659       0.01054362       0.00103271
C        1.59489031       0.13505304       0.04366173      -0.00294032       0.00684699      -0.00050618
H        2.07035692      -0.72853708       0.50483729      -0.01127431      -0.04062291      -0.07285132
F       -0.53957099       1.21637371       0.04805183      -0.00142456       0.00920824      -0.06131926
Cl       0.83831042      -3.24916725      -0.42325845       0.01187064      -0.05358309       0.01470181
H       -0.25969177      -0.60452528      -0.80657484       0.00759525      -0.03299544       0.02449792
H       -0.23993480      -0.57113809       0.95423065      -0.00126395       0.05201386       0.02644167
H        1.85029890       1.04542035       0.59286758       0.01427883      -0.03732643       0.07060272
H        1.97874963       0.21571550      -0.97425703      -0.01686816       0.08591517      -0.00260007
9
Lattice="1.0 0.0 0.0 0.0 1.0 0.0 0.0 0.0 1.0" Properties=species:S:1:pos:R:3:forces:R:3 R1=H R2=H R3=CH3 R4=CH3 leaving_group=Cl nucleophile=Cl rxn=sn2 config=rcc label=H_H_CH3_CH3_Cl_Cl_sn2_rcc conformation=0 reactant_id=H_H_CH3_CH3_Cl_none_-_r product_id=H_H_CH3_CH3_none_Cl_sn2_pc mp2_author_energy=-29302.391748605172 mp2_my_energy=0 hash=59123 address=T id=71 energy=-17372.217356079513 free_energy=-17372.217356079513 cell="(1,0,0), (0,1,0), (0,0,1)" stress="1.5509351285598512e-08 2.844251437320123e-08 -4.576607923774092e-09 2.844251437320123e-08 -2.388513709868142e-07 6.645770416474455e-09 -4.576607923774092e-09 6.645770416474455e-09 -9.924879041556441e-09" pbc="F F F"
C        0.09217450      -0.05775389       0.05746261      -0.00132577       0.01631294       0.00181803
C        1.59699156       0.12944349       0.04424270      -0.00363480       0.01165481       0.00010460
H        2.07859968      -0.69659159       0.56314416      -0.01638886      -0.04576273      -0.06451987
F       -0.53826402       1.20980865       0.09560766      -0.00777025       0.01567846      -0.05946903
Cl       0.83077765      -3.20793324      -0.43696797       0.01625473      -0.07986652       0.00827663
H       -0.26617013      -0.57875888      -0.82490951       0.00823717      -0.03059076       0.02271027
H       -0.23940638      -0.61058053       0.93438336      -0.00032042       0.05355541       0.02871832
H        1.83939146       1.07496876       0.53657019       0.02289708      -0.02500180       0.07264853
H        1.99179718       0.14666283      -0.97212075      -0.01794889       0.08402018      -0.01028749
9
Lattice="1.0 0.0 0.0 0.0 1.0 0.0 0.0 0.0 1.0" Properties=species:S:1:pos:R:3:forces:R:3 R1=H R2=H R3=CH3 R4=CH3 leaving_group=Cl nucleophile=Cl rxn=sn2 config=rcc label=H_H_CH3_CH3_Cl_Cl_sn2_rcc conformation=0 reactant_id=H_H_CH3_CH3_Cl_none_-_r product_id=H_H_CH3_CH3_none_Cl_sn2_pc mp2_author_energy=-29302.391748605172 mp2_my_energy=0 hash=59123 address=T id=71 energy=-17372.142186959452 free_energy=-17372.142186959452 cell="(1,0,0), (0,1,0), (0,0,1)" stress="3.6252569521254135e-08 6.530380803074346e-08 7.712798673443986e-09 6.530380803074346e-08 -6.662933527452726e-07 -1.1119531008557194e-07 7.712798673443986e-09 -1.1119531008557194e-07 1.2913449502169404e-08" pbc="F F F"
C        0.09386100      -0.08746148       0.05507010      -0.02419060       0.08396949       0.01401094
C        1.60338793       0.10686565       0.04455870      -0.01947089       0.04873995       0.00750708
H        2.10806386      -0.60758901       0.69137572      -0.08627112      -0.04231174      -0.03259079
F       -0.52342316       1.18175135       0.20995996      -0.03879335       0.02858072      -0.03054491
Cl       0.80449093      -3.05879873      -0.45898503       0.06503878      -0.20600777      -0.03372408
H       -0.28330231      -0.51902427      -0.86694136       0.02312508      -0.02236138       0.03177636
H       -0.23987829      -0.71074862       0.88099402       0.01009056       0.04678583       0.00474073
H        1.79685073       1.12466957       0.39336744       0.12638366       0.02755289       0.04400452
H        2.02584081      -0.02039886      -0.95198710      -0.05591212       0.03505202      -0.00517986
9
Lattice="1.0 0.0 0.0 0.0 1.0 0.0 0.0 0.0 1.0" Properties=species:S:1:pos:R:3:forces:R:3 R1=H R2=H R3=CH3 R4=CH3 leaving_group=Cl nucleophile=Cl rxn=sn2 config=rcc label=H_H_CH3_CH3_Cl_Cl_sn2_rcc conformation=0 reactant_id=H_H_CH3_CH3_Cl_none_-_r product_id=H_H_CH3_CH3_none_Cl_sn2_pc mp2_author_energy=-29302.391748605172 mp2_my_energy=0 hash=59123 address=T id=71 energy=-17371.80562326881 free_energy=-17371.80562326881 cell="(1,0,0), (0,1,0), (0,0,1)" stress="6.768702501260583e-07 -6.530718555876717e-07 -8.359597440840428e-08 -6.530718555876717e-07 -2.8059048886260184e-06 -6.486198114268684e-07 -8.359597440840428e-08 -6.486198114268684e-07 2.983365918839444e-07" pbc="F F F"
C        0.12164380      -0.18523911       0.03946100      -0.54811743       1.34985888       0.21499908
C        1.62588034       0.04944142       0.03616533      -0.17351710       0.27660687       0.04114095
H        2.20762990      -0.55238798       0.73738157      -0.39698212      -0.06780884      -0.04995171
F       -0.47826584       1.14857974       0.25155387       0.18414561      -0.52061986      -0.05503158
Cl       0.73130501      -2.81748136      -0.42518030       0.20821998      -0.95468831      -0.16856845
H       -0.31154110      -0.48861316      -0.90479316       0.14995561      -0.25889657       0.11906401
H       -0.25220262      -0.76768100       0.87409358       0.11648054      -0.10299373      -0.19840107
H        1.64950379       1.09517591       0.33232931       0.70791755       0.30895972       0.06437795
H        2.09193822      -0.07252886      -0.94359873      -0.24810265      -0.03041817       0.03237082
9
Lattice="1.0 0.0 0.0 0.0 1.0 0.0 0.0 0.0 1.0" Properties=species:S:1:pos:R:3:forces:R:3 R1=H R2=H R3=CH3 R4=CH3 leaving_group=Cl nucleophile=Cl rxn=sn2 config=rcc label=H_H_CH3_CH3_Cl_Cl_sn2_rcc conformation=0 reactant_id=H_H_CH3_CH3_Cl_none_-_r product_id=H_H_CH3_CH3_none_Cl_sn2_pc mp2_author_energy=-29302.391748605172 mp2_my_energy=0 hash=59123 address=T id=71 energy=-17371.05926005001 free_energy=-17371.05926005001 cell="(1,0,0), (0,1,0), (0,0,1)" stress="7.890661511860563e-07 -1.5865440473239522e-06 -2.4036362225612415e-07 -1.5865440473239522e-06 -1.707793886021936e-06 -4.992824882582525e-07 -2.4036362225612415e-07 -4.992824882582525e-07 1.8702288703147067e-08" pbc="F F F"
C        0.17952389      -0.32780683       0.01676931      -1.09782986       3.00255007       0.49902742
C        1.64419805       0.02023196       0.03180795      -0.12842129       0.25816532       0.03409954
H        2.24934821      -0.54471435       0.74320310      -0.31271080      -0.06605915      -0.04050466
F       -0.49776923       1.20349926       0.25793729       0.62979901      -1.42803599      -0.18681248
Cl       0.70934325      -2.71659427      -0.40780493       0.23811255      -1.19146941      -0.21605963
H       -0.32740223      -0.46101651      -0.91735045       0.09706390      -0.47124639      -0.06815264
H       -0.26446857      -0.75702724       0.89495919       0.07959501      -0.34343307      -0.10771191
H        1.57476026       1.06278033       0.32472116       0.68284845       0.29518459       0.06380983
H        2.11835790      -0.07008676      -0.94683017      -0.18845698      -0.05565597       0.02230453
9
Lattice="1.0 0.0 0.0 0.0 1.0 0.0 0.0 0.0 1.0" Properties=species:S:1:pos:R:3:forces:R:3 R1=H R2=H R3=CH3 R4=CH3 leaving_group=Cl nucleophile=Cl rxn=sn2 config=rcc label=H_H_CH3_CH3_Cl_Cl_sn2_rcc conformation=0 reactant_id=H_H_CH3_CH3_Cl_none_-_r product_id=H_H_CH3_CH3_none_Cl_sn2_pc mp2_author_energy=-29302.391748605172 mp2_my_energy=0 hash=59123 address=T id=71 energy=-17370.53184739487 free_energy=-17370.53184739487 cell="(1,0,0), (0,1,0), (0,0,1)" stress="2.7144565448858223e-07 -1.159282852966054e-06 -1.8189862706818973e-07 -1.159282852966054e-06 -5.48684419637025e-07 -1.7170723393913112e-07 -1.8189862706818973e-07 -1.7170723393913112e-07 -2.6450761885958933e-07" pbc="F F F"
C        0.22343566      -0.44787993      -0.00315094      -0.60964707       1.88128916       0.31854100
C        1.64932321       0.00991402       0.03041745      -0.01468082       0.14166655       0.01446241
H        2.26176770      -0.54189102       0.74502181      -0.15341111      -0.03507413      -0.01470431
F       -0.52297354       1.26056826       0.26563993       0.37761214      -0.85264724      -0.11178223
Cl       0.69982677      -2.66891107      -0.39931282       0.13242696      -0.67743327      -0.12432841
H       -0.33130645      -0.44209373      -0.91463980      -0.01075156      -0.30578643      -0.16492255
H       -0.26763047      -0.74335367       0.89922778      -0.01078750      -0.27695587       0.04331552
H        1.54744486       1.05105312       0.32187016       0.37787488       0.16069259       0.03405943
H        2.12600377      -0.06814038      -0.94766114      -0.08863591      -0.03575136       0.00535916
9
Lattice="1.0 0.0 0.0 0.0 1.0 0.0 0.0 0.0 1.0" Properties=species:S:1:pos:R:3:forces:R:3 R1=H R2=H R3=CH3 R4=CH3 leaving_group=Cl nucleophile=Cl rxn=sn2 config=rcc label=H_H_CH3_CH3_Cl_Cl_sn2_rcc conformation=0 reactant_id=H_H_CH3_CH3_Cl_none_-_r product_id=H_H_CH3_CH3_none_Cl_sn2_pc mp2_author_energy=-29302.391748605172 mp2_my_energy=0 hash=59123 address=T id=71 energy=-17370.352245093847 free_energy=-17370.352245093847 cell="(1,0,0), (0,1,0), (0,0,1)" stress="1.740812380733214e-08 -1.1656119562317484e-07 -1.349367163520924e-08 -1.1656119562317484e-07 -3.403898869829019e-08 -2.113313826439191e-08 -1.349367163520924e-08 -2.113313826439191e-08 -3.7940844429669174e-08" pbc="F F F"
C        0.25854460      -0.55621847      -0.02149629      -0.04967600       0.15494871       0.02585763
C        1.65016867       0.00175854       0.02954796      -0.00062799       0.01506453       0.00115271
H        2.27047108      -0.53960589       0.74614863      -0.01676537       0.00082147       0.00274905
F       -0.54474849       1.30961263       0.27242856       0.03208470      -0.07391923      -0.00362712
Cl       0.69220784      -2.62984649      -0.39235598       0.01365531      -0.06164420      -0.01433949
H       -0.33071226      -0.42437916      -0.90514824      -0.00538239      -0.02189570      -0.01901391
H       -0.26698365      -0.72748289       0.89669447      -0.00441773      -0.02317784       0.00845578
H        1.52566689       1.04190879       0.31948066       0.03689334       0.01915185      -0.00298091
H        2.13127684      -0.06648146      -0.94788731      -0.00576386      -0.00934959       0.00174626
9
Lattice="1.0 0.0 0.0 0.0 1.0 0.0 0.0 0.0 1.0" Properties=species:S:1:pos:R:3:forces:R:3 R1=H R2=H R3=CH3 R4=CH3 leaving_group=Cl nucleophile=Cl rxn=sn2 config=rcc label=H_H_CH3_CH3_Cl_Cl_sn2_rcc conformation=0 reactant_id=H_H_CH3_CH3_Cl_none_-_r product_id=H_H_CH3_CH3_none_Cl_sn2_pc mp2_author_energy=-29302.391748605172 mp2_my_energy=0 hash=59123 address=T id=71 energy=-17370.399945369012 free_energy=-17370.399945369012 cell="(1,0,0), (0,1,0), (0,0,1)" stress="-5.084569613197913e-08 5.503721667999969e-07 9.757267698989293e-08 5.503721667999969e-07 1.7659507066751187e-07 3.040639608472268e-08 9.757267698989293e-08 3.040639608472268e-08 2.0023608891287324e-07" pbc="F F F"
C        0.28521885      -0.64041486      -0.03587356       0.19227710      -0.60670976      -0.10427023
C        1.65012899      -0.00874633       0.02815486      -0.00026330      -0.07563705      -0.01077515
H        2.27966036      -0.53716668       0.74759585       0.06375530       0.02218746       0.01517365
F       -0.56350977       1.35115407       0.27798932      -0.13576777       0.29830828       0.04657606
Cl       0.68298177      -2.59115972      -0.38567713      -0.06640463       0.27967036       0.04493072
H       -0.32509528      -0.41280818      -0.89105064       0.04011377       0.08488007       0.10153925
H       -0.26164088      -0.71601302       0.88802619       0.03891020       0.08170173      -0.06302764
H        1.50116181       1.02955908       0.31638929      -0.17697289      -0.08717460      -0.02960442
H        2.13698565      -0.06513875      -0.94814172       0.04435222       0.00277352      -0.00054223
9
Lattice="1.0 0.0 0.0 0.0 1.0 0.0 0.0 0.0 1.0" Properties=species:S:1:pos:R:3:forces:R:3 R1=H R2=H R3=CH3 R4=CH3 leaving_group=Cl nucleophile=Cl rxn=sn2 config=rcc label=H_H_CH3_CH3_Cl_Cl_sn2_rcc conformation=0 reactant_id=H_H_CH3_CH3_Cl_none_-_r product_id=H_H_CH3_CH3_none_Cl_sn2_pc mp2_author_energy=-29302.391748605172 mp2_my_energy=0 hash=59123 address=T id=71 energy=-17370.50837136587 free_energy=-17370.50837136587 cell="(1,0,0), (0,1,0), (0,0,1)" stress="-1.1438450638957923e-08 7.343265400788512e-07 1.328058850250308e-07 7.343265400788512e-07 -2.5579485071384216e-07 -4.702453455380143e-08 1.328058850250308e-07 -4.702453455380143e-08 2.197738499424243e-07" pbc="F F F"
C        0.31209820      -0.71606652      -0.04863251       0.16214942      -0.45615999      -0.07773982
C        1.65215402      -0.02525728       0.02548424       0.01224202      -0.09947521      -0.01693368
H        2.29464752      -0.53093377       0.75110488       0.08777466       0.04210615       0.02571683
F       -0.58715871       1.40953089       0.28579002      -0.14324670       0.35089286       0.05376152
Cl       0.66960742      -2.56416362      -0.38191292      -0.08059624       0.16364643       0.01982634
H       -0.31159888      -0.40188959      -0.87121502       0.08102564       0.06703423       0.11944821
H       -0.24816590      -0.70642842       0.87483816       0.08165789       0.05721972      -0.08011255
H        1.45727145       1.00736497       0.31053770      -0.26500054      -0.13205345      -0.04248311
H        2.14703638      -0.06289107      -0.94858211       0.06399386       0.00678927      -0.00148374
9
Lattice="1.0 0.0 0.0 0.0 1.0 0.0 0.0 0.0 1.0" Properties=species:S:1:pos:R:3:forces:R:3 R1=H R2=H R3=CH3 R4=CH3 leaving_group=Cl nucleophile=Cl rxn=sn2 config=rcc label=H_H_CH3_CH3_Cl_Cl_sn2_rcc conformation=0 reactant_id=H_H_CH3_CH3_Cl_none_-_r product_id=H_H_CH3_CH3_none_Cl_sn2_pc mp2_author_energy=-29302.391748605172 mp2_my_energy=0 hash=59123 address=T id=71 energy=-17370.577367320377 free_energy=-17370.577367320377 cell="(1,0,0), (0,1,0), (0,0,1)" stress="8.019217919214297e-08 3.62982025845626e-07 7.355584804575597e-08 3.62982025845626e-07 -4.698274111946158e-07 -9.147018247616474e-08 7.355584804575597e-08 -9.147018247616474e-08 6.151017846804646e-08" pbc="F F F"
C        0.33440494      -0.76352116      -0.05620844       0.06925910      -0.14709897      -0.02436033
C        1.65608756      -0.04215937       0.02211011       0.01226936      -0.05235290      -0.01138153
H        2.31165532      -0.51496978       0.75897941       0.05014712       0.05372795       0.02851180
F       -0.60125212       1.47772264       0.29573501      -0.04453711       0.21036834       0.03772332
Cl       0.65055912      -2.56793900      -0.38681524      -0.05904425      -0.01097720      -0.01745319
H       -0.29307372      -0.39451352      -0.85434728       0.05718593       0.02361670       0.05192216
H       -0.22737602      -0.70608059       0.86592813       0.06482019       0.00109382      -0.02834504
H        1.39382133       0.97983879       0.29978061      -0.19706118      -0.08375369      -0.04017367
H        2.16106512      -0.05911244      -0.94774986       0.04696084       0.00537597       0.00355648
9
Lattice="1.0 0.0 0.0 0.0 1.0 0.0 0.0 0.0 1.0" Properties=species:S:1:pos:R:3:forces:R:3 R1=H R2=H R3=CH3 R4=CH3 leaving_group=Cl nucleophile=Cl rxn=sn2 config=rcc label=H_H_CH3_CH3_Cl_Cl_sn2_rcc conformation=0 reactant_id=H_H_CH3_CH3_Cl_none_-_r product_id=H_H_CH3_CH3_none_Cl_sn2_pc mp2_author_energy=-29302.391748605172 mp2_my_energy=0 hash=59123 address=T id=71 energy=-17370.60630933039 free_energy=-17370.60630933039 cell="(1,0,0), (0,1,0), (0,0,1)" stress="1.2105342877070348e-07 4.671443726182768e-08 1.7919688401401553e-08 4.671443726182768e-08 -2.6732554528667903e-07 -6.735740998407078e-08 1.7919688401401553e-08 -6.735740998407078e-08 -8.732811054676933e-09" pbc="F F F"
C        0.34846531      -0.79174028      -0.06000650       0.02067539      -0.04115185      -0.00646737
C        1.65658433      -0.05109270       0.01983622       0.00085096      -0.01302918      -0.00430185
H        2.31926509      -0.48719615       0.77341148       0.00886600       0.04412931       0.02422417
F       -0.58668768       1.53612323       0.30628558       0.02049520       0.08447870       0.02214189
Cl       0.63134298      -2.58417657      -0.40094225      -0.02824477      -0.02343962      -0.02175252
H       -0.28064290      -0.39511800      -0.84411038       0.01822778      -0.00080518       0.01401610
H       -0.20757670      -0.72119140       0.86526843       0.02917421      -0.02131612      -0.00190530
H        1.33158453       0.96085213       0.28171866      -0.09146116      -0.02662914      -0.03204669
H        2.17355655      -0.05719468      -0.94404879       0.02141638      -0.00223692       0.00609157
9
Lattice="1.0 0.0 0.0 0.0 1.0 0.0 0.0 0.0 1.0" Properties=species:S:1:pos:R:3:forces:R:3 R1=H R2=H R3=CH3 R4=CH3 leaving_group=Cl nucleophile=Cl rxn=sn2 config=rcc label=H_H_CH3_CH3_Cl_Cl_sn2_rcc conformation=0 reactant_id=H_H_CH3_CH3_Cl_none_-_r product_id=H_H_CH3_CH3_none_Cl_sn2_pc mp2_author_energy=-29302.391748605172 mp2_my_energy=0 hash=59123 address=T id=71 energy=-17370.619762190683 free_energy=-17370.619762190683 cell="(1,0,0), (0,1,0), (0,0,1)" stress="6.311103706827826e-08 -1.4534842500128595e-08 3.5457309666411255e-09 -1.4534842500128595e-08 -8.171882283792534e-08 -3.015546934285327e-08 3.5457309666411255e-09 -3.015546934285327e-08 -1.1162226711713644e-08" pbc="F F F"
C        0.35526674      -0.81623460      -0.06073163       0.00246683      -0.00852224      -0.00133930