9
Lattice="1.0 0.0 0.0 0.0 1.0 0.0 0.0 0.0 1.0" Properties=species:S:1:pos:R:3:forces:R:3 R1=H R2=H R3=CH3 R4=CH3 leaving_group=Cl nucleophile=Cl rxn=sn2 config=rcc label=H_H_CH3_CH3_Cl_Cl_sn2_rcc conformation=0 reactant_id=H_H_CH3_CH3_Cl_none_-_r product_id=H_H_CH3_CH3_none_Cl_sn2_pc mp2_author_energy=-29302.391748605172 mp2_my_energy=0 hash=59123 address=T id=71 energy=-17372.33216497299 free_energy=-17372.33216497299 cell="(1,0,0), (0,1,0), (0,0,1)" pbc="F F F"
C        0.09142836      -0.02057665       0.00018700      -0.00383810       0.00153641      -0.00068481
C        1.58722280       0.14924827      -0.00111085       0.00020147      -0.00237977      -0.00061630
H        2.03195864      -0.84661872      -0.00635447      -0.00043287       0.00066109       0.00360198
F       -0.53491861       1.24651010      -0.01033438       0.00123778      -0.00105707       0.00337249
Cl       0.88543890      -3.39675651       0.00603569      -0.00050197      -0.00038193      -0.00016305
H       -0.24798218      -0.56713807      -0.87777751      -0.00113173       0.00148985       0.00279851
H       -0.24989953      -0.55273097       0.88632969       0.00349898      -0.00246302      -0.00540624
H        1.91405155       0.69490750       0.88785996      -0.00213133       0.00382493      -0.00088743
H        1.90859158       0.70242064      -0.88742268       0.00309776      -0.00123049      -0.00201515
9
Lattice="1.0 0.0 0.0 0.0 1.0 0.0 0.0 0.0 1.0" Properties=species:S:1:pos:R:3:forces:R:3 R1=H R2=H R3=CH3 R4=CH3 leaving_group=Cl nucleophile=Cl rxn=sn2 config=rcc label=H_H_CH3_CH3_Cl_Cl_sn2_rcc conformation=0 reactant_id=H_H_CH3_CH3_Cl_none_-_r product_id=H_H_CH3_CH3_none_Cl_sn2_pc mp2_author_energy=-29302.391748605172 mp2_my_energy=0 hash=59123 address=T id=71 energy=-17372.330535467157 free_energy=-17372.330535467157 cell="(1,0,0), (0,1,0), (0,0,1)" stress="-1.492781366156339e-10 4.52672158984168e-09 -4.859385402752421e-10 4.52672158984168e-09 -2.6826639322453944e-09 9.790569873462726e-09 -4.859385402752421e-10 9.790569873462726e-09 3.3466085670594084e-10" pbc="F F F"
C        0.09166618      -0.02068657       0.01549900      -0.00034542       0.00061943      -0.00121220
C        1.58744108       0.15007424       0.00998800      -0.00025575      -0.00036203      -0.00089962
H        2.03353180      -0.84367374       0.06468986      -0.00117562      -0.00122397      -0.00625213
F       -0.53582492       1.24444664      -0.03933536       0.00031442       0.00116837       0.00188968
Cl       0.88247440      -3.39827495      -0.09010559       0.00248367      -0.00091359       0.00777102
H       -0.24641687      -0.60035835      -0.84065211      -0.00075313       0.00301741      -0.00284252
H       -0.24980146      -0.51937742       0.92148244      -0.00061648      -0.00164394      -0.00249883
H        1.90954424       0.75184538       0.86409481       0.00068693      -0.00537629       0.00245349
H        1.91327705       0.64527035      -0.90824860      -0.00033860       0.00471459       0.00159112
9
Lattice="1.0 0.0 0.0 0.0 1.0 0.0 0.0 0.0 1.0" Properties=species:S:1:pos:R:3:forces:R:3 R1=H R2=H R3=CH3 R4=CH3 leaving_group=Cl nucleophile=Cl rxn=sn2 config=rcc label=H_H_CH3_CH3_Cl_Cl_sn2_rcc conformation=0 reactant_id=H_H_CH3_CH3_Cl_none_-_r product_id=H_H_CH3_CH3_none_Cl_sn2_pc mp2_author_energy=-29302.391748605172 mp2_my_energy=0 hash=59123 address=T id=71 energy=-17372.3272422722 free_energy=-17372.3272422722 cell="(1,0,0), (0,1,0), (0,0,1)" stress="-3.4864592946336135e-10 1.4601033410826438e-08 -5.761542433406822e-10 1.4601033410826438e-08 -1.7621857680595825e-08 1.4792965450173271e-08 -5.761542433406822e-10 1.4792965450173271e-08 1.2017453678989023e-09" pbc="F F F"
C        0.08987650      -0.01866196       0.03311346      -0.00110378       0.00239207      -0.00150010
C        1.58619135       0.14767113       0.02252450      -0.00084422      -0.00073916      -0.00126771
H        2.03113834      -0.84131766       0.13753514      -0.00350460      -0.00386471      -0.01358205
F       -0.53412799       1.24448002      -0.07637125       0.00107928       0.00352757      -0.00076330
Cl       0.89223079      -3.39720284      -0.19630323       0.00792915      -0.00658325       0.01163091
H       -0.24743661      -0.63585009      -0.79585634      -0.00202409       0.00368611      -0.00229607
H       -0.25476809      -0.47362808       0.96125076      -0.00229330       0.00232985      -0.00198225
H        1.90668162       0.80353761       0.83670014       0.00240654      -0.01146746       0.00663101
H        1.91610560       0.58023746      -0.92518074      -0.00164499       0.01071897       0.00312956
9
Lattice="1.0 0.0 0.0 0.0 1.0 0.0 0.0 0.0 1.0" Properties=species:S:1:pos:R:3:forces:R:3 R1=H R2=H R3=CH3 R4=CH3 leaving_group=Cl nucleophile=Cl rxn=sn2 config=rcc label=H_H_CH3_CH3_Cl_Cl_sn2_rcc conformation=0 reactant_id=H_H_CH3_CH3_Cl_none_-_r product_id=H_H_CH3_CH3_none_Cl_sn2_pc mp2_author_energy=-29302.391748605172 mp2_my_energy=0 hash=59123 address=T id=71 energy=-17372.321060218674 free_energy=-17372.321060218674 cell="(1,0,0), (0,1,0), (0,0,1)" stress="9.471066727405868e-10 2.3908879006128658e-08 -9.011773988309778e-10 2.3908879006128658e-08 -4.446076183783769e-08 1.7169654138266806e-08 -9.011773988309778e-10 1.7169654138266806e-08 1.202207632638147e-09" pbc="F F F"
C        0.09077877      -0.02342316       0.04770397      -0.00171786       0.00473915      -0.00104763
C        1.58701706       0.14618817       0.03316646      -0.00148612      -0.00027573      -0.00112978
H        2.03691455      -0.82870046       0.22203037      -0.00610123      -0.00842304      -0.02599157
F       -0.53559600       1.23547080      -0.09221796       0.00154977       0.00516546      -0.01040967
Cl       0.88235678      -3.37153492      -0.29154529       0.01296268      -0.01660690       0.01322214
H       -0.24476994      -0.66282881      -0.76408770      -0.00198093      -0.00023316       0.00274589
H       -0.25263049      -0.45410504       0.98816268      -0.00411866       0.01252403       0.00168160
H        1.89839884       0.86433908       0.79695363       0.00573771      -0.01997233       0.01572178
H        1.92342195       0.50385994      -0.94275370      -0.00484535       0.02308253       0.00520724
9
Lattice="1.0 0.0 0.0 0.0 1.0 0.0 0.0 0.0 1.0" Properties=species:S:1:pos:R:3:forces:R:3 R1=H R2=H R3=CH3 R4=CH3 leaving_group=Cl nucleophile=Cl rxn=sn2 config=rcc label=H_H_CH3_CH3_Cl_Cl_sn2_rcc conformation=0 reactant_id=H_H_CH3_CH3_Cl_none_-_r product_id=H_H_CH3_CH3_none_Cl_sn2_pc mp2_author_energy=-29302.391748605172 mp2_my_energy=0 hash=59123 address=T id=71 energy=-17372.31115502664 free_energy=-17372.31115502664 cell="(1,0,0), (0,1,0), (0,0,1)" stress="5.142849606161756e-09 2.3646345341409447e-08 -2.6456930776561422e-09 2.3646345341409447e-08 -6.08782204043332e-08 2.1439168037567117e-08 -2.6456930776561422e-09 2.1439168037567117e-08 3.261866264481553e-10" pbc="F F F"
C        0.09326418      -0.03235185       0.05273771      -0.00139365       0.00576710      -0.00063336
C        1.58940807       0.14508417       0.03726652      -0.00178485       0.00090773      -0.00083954
H        2.04739108      -0.80987023       0.29357473      -0.00760661      -0.01471852      -0.04140754
F       -0.53847859       1.22586003      -0.07087691       0.00105354       0.00456859      -0.02421741
Cl       0.86139528      -3.33311781      -0.33689561       0.01306112      -0.02221750       0.01525709
H       -0.24281547      -0.66329384      -0.76483359       0.00077055      -0.00891084       0.00932201
H       -0.24543834      -0.47573925       0.98891268      -0.00453765       0.02332757       0.00698988
H        1.88585096       0.91588643       0.75428336       0.00917957      -0.02894619       0.02889455
H        1.93531434       0.43680794      -0.95675644      -0.00874202       0.04022206       0.00663433
9
Lattice="1.0 0.0 0.0 0.0 1.0 0.0 0.0 0.0 1.0" Properties=species:S:1:pos:R:3:forces:R:3 R1=H R2=H R3=CH3 R4=CH3 leaving_group=Cl nucleophile=Cl rxn=sn2 config=rcc label=H_H_CH3_CH3_Cl_Cl_sn2_rcc conformation=0 reactant_id=H_H_CH3_CH3_Cl_none_-_r product_id=H_H_CH3_CH3_none_Cl_sn2_pc mp2_author_energy=-29302.391748605172 mp2_my_energy=0 hash=59123 address=T id=71 energy=-17372.29730608561 free_energy=-17372.29730608561 cell="(1,0,0), (0,1,0), (0,0,1)" stress="1.1146474636868368e-08 2.099126727158509e-08 -4.6502373290947105e-09 2.099126727158509e-08 -6.273380524912836e-08 2.6792687761513394e-08 -4.6502373290947105e-09 2.6792687761513394e-08 -3.1716032597336376e-10" pbc="F F F"
C        0.09434123      -0.03850155       0.05483465      -0.00074480       0.00591793      -0.00025851
C        1.59135086       0.14371531       0.03905961      -0.00212558       0.00163603      -0.00065042
H        2.05584295      -0.78838847       0.35817286      -0.00855870      -0.02314336      -0.05609614
F       -0.53996911       1.22171548      -0.03610608       0.00069863       0.00364099      -0.03899927
Cl       0.84813644      -3.30813707      -0.36546980       0.01198561      -0.02236248       0.01725607
H       -0.24537252      -0.64902512      -0.77634413       0.00385685      -0.01938600       0.01591234
H       -0.24016843      -0.50551088       0.98067841      -0.00416376       0.03335668       0.01314324
H        1.87349537       0.96027203       0.70954387       0.01167039      -0.03680792       0.04350804
H        1.94823472       0.37312587      -0.96695694      -0.01261865       0.05714812       0.00618465
9
Lattice="1.0 0.0 0.0 0.0 1.0 0.0 0.0 0.0 1.0" Properties=species:S:1:pos:R:3:forces:R:3 R1=H R2=H R3=CH3 R4=CH3 leaving_group=Cl nucleophile=Cl rxn=sn2 config=rcc label=H_H_CH3_CH3_Cl_Cl_sn2_rcc conformation=0 reactant_id=H_H_CH3_CH3_Cl_none_-_r product_id=H_H_CH3_CH3_none_Cl_sn2_pc mp2_author_energy=-29302.391748605172 mp2_my_energy=0 hash=59123 address=T id=71 energy=-17372.279261238604 free_energy=-17372.279261238604 cell="(1,0,0), (0,1,0), (0,0,1)" stress="1.793404723470265e-08 2.091313217158012e-08 -5.477862353037055e-09 2.091313217158012e-08 -9.617103445608685e-08 2.7245964293458508e-08 -5.477862353037055e-09 2.7245964293458508e-08 -5.358959806476051e-10" pbc="F F F"
C        0.09576446      -0.04642013       0.05601768      -0.00027538       0.00777401       0.00019840
C        1.59400552       0.14194568       0.04047063      -0.00260723       0.00363407      -0.00054945
H        2.06597420      -0.76323941       0.41909980      -0.01009259      -0.03046289      -0.06665740
F       -0.54191361       1.21479734       0.00046418       0.00035418       0.00549597      -0.05050067
Cl       0.83119945      -3.27604922      -0.38857922       0.01203374      -0.03405788       0.01740483
H       -0.24728321      -0.63439864      -0.78964600       0.00614472      -0.02636997       0.02066311
H       -0.23494125      -0.53895231       0.96955855      -0.00320633       0.04258773       0.01896460
H        1.86150479       1.00005707       0.66317953       0.01307289      -0.04027036       0.05632763
H        1.96158116       0.31152519      -0.97315270      -0.01542399       0.07166933       0.00414896
9
Lattice="1.0 0.0 0.0 0.0 1.0 0.0 0.0 0.0 1.0" Properties=species:S:1:pos:R:3:forces:R:3 R1=H R2=H R3=CH3 R4=CH3 leaving_group=Cl nucleophile=Cl rxn=sn2 config=rcc label=H_H_CH3_CH3_Cl_Cl_sn2_rcc conformation=0 reactant_id=H_H_CH3_CH3_Cl_none_-_r product_id=H_H_CH3_CH3_none_Cl_sn2_pc mp2_author_energy=-29302.391748605172 mp2_my_energy=0 hash=59123 address=T id=71 energy=-17372.263352557635 free_energy=-17372.263352557635 cell="(1,0,0), (0,1,0), (0,0,1)" stress="2.233201405132491e-08 2.201462026429384e-08 -5.659456957472655e-09 2.201462026429384e-08 -1.3845356528991808e-07 2.3890424059433027e-08 -5.659456957472655e-09 2.3890424059433027e-08 -2.3232884581611985e-09" pbc="F F F"
C        0.09566771      -0.05121424       0.05617609      -0.00008985       0.01024044       0.00073589
C        1.59546546       0.13906984       0.04091044      -0.00302976       0.00615428      -0.00042791
H        2.07184100      -0.74447606       0.46186987      -0.01231166      -0.03624651      -0.07134993
F       -0.54189339       1.21164715       0.03181159      -0.00123620       0.00830620      -0.05735601
Cl       0.82532072      -3.25280401      -0.40083535       0.01245690      -0.04821720       0.01588479
H       -0.25172167      -0.61806280      -0.80195852       0.00810704      -0.03015125       0.02311050
H       -0.23343081      -0.56490700       0.95821460      -0.00183041       0.04867689       0.02345124
H        1.85347645       1.02525149       0.62704038       0.01490399      -0.03928781       0.06509212
H        1.97116605       0.26476121      -0.97581666      -0.01697004       0.08052497       0.00085930
9
Lattice="1.0 0.0 0.0 0.0 1.0 0.0 0.0 0.0 1.0" Properties=species:S:1:pos:R:3:forces:R:3 R1=H R2=H R3=CH3 R4=CH3 leaving_group=Cl nucleophile=Cl rxn=sn2 config=rcc label=H_H_CH3_CH3_Cl_Cl_sn2_rcc conformation=0 reactant_id=H_H_CH3_CH3_Cl_none_-_r product_id=H_H_CH3_CH3_none_Cl_sn2_pc mp2_author_energy=-29302.391748605172 mp2_my_energy=0 hash=59123 address=T id=71 energy=-17372.2402439593 free_energy=-17372.2402439593 cell="(1,0,0), (0,1,0), (0,0,1)" stress="2.2667701197102332e-08 2.6479009079668526e-08 -5.366957685115261e-09 2.6479009079668526e-08 -2.173401571376583e-07 1.3540506478071986e-08 -5.366957685115261e-09 1.3540506478071986e-08 -6.811638740490412e-09" pbc="F F F"
C        0.09532146      -0.05771019       0.05608422      -0.00072385       0.01544725       0.00170202
C        1.59738038       0.13454932       0.04140401      -0.00382481       0.01094134       0.00003488
H        2.07992476      -0.71796441       0.51504181      -0.01765012      -0.04385516      -0.07164249
F       -0.54060726       1.20693757       0.07331741      -0.00649166       0.01376159      -0.06233360
Cl       0.81886240      -3.22146135      -0.41481451       0.01504230      -0.07349365       0.01144418
H       -0.25846549      -0.59549326      -0.81794705       0.01054744      -0.03223879       0.02439306
H       -0.23274062      -0.59852897       0.94199128      -0.00002944       0.05468404       0.02823159
H        1.84292320       1.05434929       0.57875080       0.02187881      -0.03251300       0.07333433
H        1.98329269       0.20458758      -0.97641552      -0.01874866       0.08726639      -0.00516396
9
Lattice="1.0 0.0 0.0 0.0 1.0 0.0 0.0 0.0 1.0" Properties=species:S:1:pos:R:3:forces:R:3 R1=H R2=H R3=CH3 R4=CH3 leaving_group=Cl nucleophile=Cl rxn=sn2 config=rcc label=H_H_CH3_CH3_Cl_Cl_sn2_rcc conformation=0 reactant_id=H_H_CH3_CH3_Cl_none_-_r product_id=H_H_CH3_CH3_none_Cl_sn2_pc mp2_author_energy=-29302.391748605172 mp2_my_energy=0 hash=59123 address=T id=71 energy=-17372.18547360435 free_energy=-17372.18547360435 cell="(1,0,0), (0,1,0), (0,0,1)" stress="1.9893251913687818e-08 4.729727622617438e-08 -3.3745323645693057e-09 4.729727622617438e-08 -4.929129253254429e-07 -4.636741510221393e-08 -3.3745323645693057e-09 -4.636741510221393e-08 -1.2654149264500323e-09" pbc="F F F"
C        0.09576465      -0.07660488       0.05477952      -0.00985032       0.04744284       0.00641200
C        1.60208707       0.12050390       0.04184674      -0.01040406       0.03229296       0.00396785
H        2.10192878      -0.65871942       0.61298122      -0.05438772      -0.05046939      -0.05585201
F       -0.53199384       1.19057058       0.15519698      -0.02995887       0.02636804      -0.05375899
Cl       0.80201831      -3.13123012      -0.43545435       0.03798949      -0.15912431      -0.01076464
H       -0.27323046      -0.55237193      -0.84852143       0.01876742      -0.02823950       0.02752709
H       -0.23332010      -0.66795254       0.90643590       0.00558994       0.05947078       0.02257554
H        1.81476311       1.09916064       0.47946475       0.07664287      -0.00216838       0.06882905
H        2.00787398       0.08590936      -0.96931688      -0.03438875       0.07442697      -0.00893588
9
Lattice="1.0 0.0 0.0 0.0 1.0 0.0 0.0 0.0 1.0" Properties=species:S:1:pos:R:3:forces:R:3 R1=H R2=H R3=CH3 R4=CH3 leaving_group=Cl nucleophile=Cl rxn=sn2 config=rcc label=H_H_CH3_CH3_Cl_Cl_sn2_rcc conformation=0 reactant_id=H_H_CH3_CH3_Cl_none_-_r product_id=H_H_CH3_CH3_none_Cl_sn2_pc mp2_author_energy=-29302.391748605172 mp2_my_energy=0 hash=59123 address=T id=71 energy=-17371.971652832537 free_energy=-17371.971652832537 cell="(1,0,0), (0,1,0), (0,0,1)" stress="3.535766203185661e-07 -2.44180231114343e-07 -1.5666335212654206e-08 -2.44180231114343e-07 -2.2282375491834816e-06 -4.752064538739744e-07 -1.5666335212654206e-08 -4.752064538739744e-07 1.7632848679502659e-07" pbc="F F F"
C        0.11040667      -0.14884501       0.04596980      -0.25238186       0.66008910       0.09904981
C        1.61787861       0.07071242       0.03635015      -0.10331738       0.20476376       0.02618608
H        2.18442556      -0.57628501       0.70671455      -0.32363642      -0.06669098      -0.03908551
F       -0.48652242       1.15056301       0.24139965       0.00044231      -0.16685937      -0.01556798
Cl       0.74607014      -2.88774012      -0.42604356       0.15762495      -0.68295157      -0.11859773
H       -0.30318240      -0.50648752      -0.89037151       0.10681324      -0.14232742       0.09645323
H       -0.24244363      -0.75997376       0.87189722       0.07613971      -0.01158368      -0.11994784
H        1.69772908       1.10582992       0.36553561       0.51303801       0.20798641       0.05466674
H        2.06152991      -0.03850834      -0.95403947      -0.17472256      -0.00242623       0.01684321
9
Lattice="1.0 0.0 0.0 0.0 1.0 0.0 0.0 0.0 1.0" Properties=species:S:1:pos:R:3:forces:R:3 R1=H R2=H R3=CH3 R4=CH3 leaving_group=Cl nucleophile=Cl rxn=sn2 config=rcc label=H_H_CH3_CH3_Cl_Cl_sn2_rcc conformation=0 reactant_id=H_H_CH3_CH3_Cl_none_-_r product_id=H_H_CH3_CH3_none_Cl_sn2_pc mp2_author_energy=-29302.391748605172 mp2_my_energy=0 hash=59123 address=T id=71 energy=-17371.243661858443 free_energy=-17371.243661858443 cell="(1,0,0), (0,1,0), (0,0,1)" stress="8.517656145592705e-07 -1.5061861641881288e-06 -2.0994872551719536e-07 -1.5061861641881288e-06 -1.9953848768961966e-06 -6.032756347460915e-07 -2.0994872551719536e-07 -6.032756347460915e-07 1.2968554976961005e-07" pbc="F F F"
C        0.16653648      -0.29595629       0.02436281      -1.11562636       2.95566551       0.46361186
C        1.64093933       0.02512183       0.03039141      -0.16420786       0.28013232       0.03528228
H        2.25613376      -0.56017544       0.71695514      -0.36479901      -0.07596065      -0.05184012
F       -0.48674275       1.18757253       0.24621067       0.60602162      -1.42833427      -0.17361645
Cl       0.71112845      -2.73533613      -0.40074018       0.24532088      -1.22743989      -0.22016467
H       -0.32714226      -0.47408934      -0.91203167       0.13424793      -0.47122990      -0.00828782
H       -0.25931915      -0.75789987       0.89823040       0.10698107      -0.29794993      -0.15168975
H        1.58347813       1.06009239       0.35129694       0.74020279       0.31839424       0.07989420
H        2.10087952      -0.04006410      -0.95726308      -0.18814105      -0.05327741       0.02681047
9
Lattice="1.0 0.0 0.0 0.0 1.0 0.0 0.0 0.0 1.0" Properties=species:S:1:pos:R:3:forces:R:3 R1=H R2=H R3=CH3 R4=CH3 leaving_group=Cl nucleophile=Cl rxn=sn2 config=rcc label=H_H_CH3_CH3_Cl_Cl_sn2_rcc conformation=0 reactant_id=H_H_CH3_CH3_Cl_none_-_r product_id=H_H_CH3_CH3_none_Cl_sn2_pc mp2_author_energy=-29302.391748605172 mp2_my_energy=0 hash=59123 address=T id=71 energy=-17370.62838816552 free_energy=-17370.62838816552 cell="(1,0,0), (0,1,0), (0,0,1)" stress="3.315585088336714e-07 -1.2813091932993742e-06 -1.9485568646636682e-07 -1.2813091932993742e-06 -7.768345764179154e-07 -2.5365369515313684e-07 -1.9485568646636682e-07 -2.5365369515313684e-07 -2.412486883281808e-07" pbc="F F F"
C        0.21412566      -0.42205097       0.00426915      -0.75289153       2.27261873       0.37339712
C        1.64790588       0.01315494       0.02896923      -0.03284118       0.16480275       0.01828614
H        2.27158367      -0.55669343       0.71939679      -0.19085725      -0.04894424      -0.02182324
F       -0.51263899       1.24847592       0.25391557       0.44573689      -1.04117671      -0.13393379
Cl       0.70067622      -2.68290871      -0.39153493       0.16857651      -0.83859323      -0.15439850
H       -0.33281075      -0.45385018      -0.91150108       0.00260768      -0.35545291      -0.15972019
H       -0.26389598      -0.74531201       0.90477055       0.00254925      -0.30225420       0.02678014
H        1.55190019       1.04660548       0.34750363       0.45081403       0.18916370       0.04203436
H        2.10904561      -0.03815545      -0.95837646      -0.09369440      -0.04016389       0.00937797
9
Lattice="1.0 0.0 0.0 0.0 1.0 0.0 0.0 0.0 1.0" Properties=species:S:1:pos:R:3:forces:R:3 R1=H R2=H R3=CH3 R4=CH3 leaving_group=Cl nucleophile=Cl rxn=sn2 config=rcc label=H_H_CH3_CH3_Cl_Cl_sn2_rcc conformation=0 reactant_id=H_H_CH3_CH3_Cl_none_-_r product_id=H_H_CH3_CH3_none_Cl_sn2_pc mp2_author_energy=-29302.391748605172 mp2_my_energy=0 hash=59123 address=T id=71 energy=-17370.360806816112 free_energy=-17370.360806816112 cell="(1,0,0), (0,1,0), (0,0,1)" stress="4.134652629536637e-08 -2.7957104287780145e-07 -3.89262157913358e-08 -2.7957104287780145e-07 -8.751724209403141e-08 -4.104635838156342e-08 -3.89262157913358e-08 -4.104635838156342e-08 -7.913390819209972e-08" pbc="F F F"
C        0.25400850      -0.54241653      -0.01552812      -0.12648042       0.39137902       0.06427592
C        1.64964499       0.00442735       0.02796963      -0.00252268       0.03625935       0.00405528
H        2.28155044      -0.55382498       0.72085901      -0.03965676      -0.00595253       0.00033343
F       -0.53629556       1.30356227       0.26137663       0.07905515      -0.18644500      -0.01823198
Cl       0.69176386      -2.63842518      -0.38358394       0.03473912      -0.15422050      -0.03156466
H       -0.33297314      -0.43490300      -0.90302793      -0.01172623      -0.05640190      -0.04206871
H       -0.26400506      -0.72939096       0.90332392      -0.00983103      -0.05491108       0.01868686
H        1.52801083       1.03670741       0.34481652       0.09221817       0.04413561       0.00177662
H        2.11418665      -0.03647080      -0.95879327      -0.01579532      -0.01384297       0.00273723
9
Lattice="1.0 0.0 0.0 0.0 1.0 0.0 0.0 0.0 1.0" Properties=species:S:1:pos:R:3:forces:R:3 R1=H R2=H R3=CH3 R4=CH3 leaving_group=Cl nucleophile=Cl rxn=sn2 config=rcc label=H_H_CH3_CH3_Cl_Cl_sn2_rcc conformation=0 reactant_id=H_H_CH3_CH3_Cl_none_-_r product_id=H_H_CH3_CH3_none_Cl_sn2_pc mp2_author_energy=-29302.391748605172 mp2_my_energy=0 hash=59123 address=T id=71 energy=-17370.397699819674 free_energy=-17370.397699819674 cell="(1,0,0), (0,1,0), (0,0,1)" stress="-3.7125085715662585e-08 5.362156166639577e-07 9.592330591845782e-08 5.362156166639577e-07 1.1673808942609719e-07 1.6194808899131385e-08 9.592330591845782e-08 1.6194808899131385e-08 1.8280996934041457e-07" pbc="F F F"
C        0.28501629      -0.64116767      -0.03202269       0.19102951      -0.60790561      -0.10209262
C        1.64934991      -0.00713112       0.02629783      -0.00174890      -0.07109293      -0.01114522
H        2.29222398      -0.55044812       0.72242231       0.06279750       0.02594240       0.01527960
F       -0.55744718       1.35221460       0.26813125      -0.13124440       0.29831572       0.04893184
Cl       0.68137871      -2.59585989      -0.37615687      -0.06368970       0.26324039       0.04181881
H       -0.32652244      -0.42108470      -0.88783116       0.03916578       0.08703396       0.09366200
H       -0.25809250      -0.71533813       0.89399366       0.03700369       0.08535815      -0.05806392
H        1.50010818       1.02314754       0.34166968      -0.17207234      -0.08125477      -0.02796647
H        2.11987654      -0.03506692      -0.95909156       0.03875887       0.00036270      -0.00042401
9
Lattice="1.0 0.0 0.0 0.0 1.0 0.0 0.0 0.0 1.0" Properties=species:S:1:pos:R:3:forces:R:3 R1=H R2=H R3=CH3 R4=CH3 leaving_group=Cl nucleophile=Cl rxn=sn2 config=rcc label=H_H_CH3_CH3_Cl_Cl_sn2_rcc conformation=0 reactant_id=H_H_CH3_CH3_Cl_none_-_r product_id=H_H_CH3_CH3_none_Cl_sn2_pc mp2_author_energy=-29302.391748605172 mp2_my_energy=0 hash=59123 address=T id=71 energy=-17370.514826629933 free_energy=-17370.514826629933 cell="(1,0,0), (0,1,0), (0,0,1)" stress="-3.0516950747480376e-08 7.174334907715691e-07 1.3443474683644967e-07 7.174334907715691e-07 -2.780543282600836e-07 -6.747314028502025e-08 1.3443474683644967e-07 -6.747314028502025e-08 1.964593855507674e-07" pbc="F F F"
C        0.31448842      -0.72216560      -0.04538114       0.15377414      -0.42216975      -0.07056078
C        1.65182770      -0.02551712       0.02313913       0.01301705      -0.09578161      -0.01733978
H        2.31008780      -0.54278184       0.72628529       0.09009599       0.04499651       0.02553227
F       -0.58414013       1.41798189       0.27817348      -0.14033754       0.34155112       0.05977509
Cl       0.66697590      -2.56763189      -0.37234918      -0.07495138       0.14836549       0.01630998
H       -0.31130809      -0.41034094      -0.86753535       0.07880574       0.05770434       0.10598898
H       -0.24364243      -0.70462461       0.87956403       0.07594353       0.05499022      -0.07567660
H        1.45128775       0.99839647       0.33514260      -0.25476506      -0.12685250      -0.04250164
H        2.13031459      -0.03405077      -0.95962641       0.05841753      -0.00280382      -0.00152752
9
Lattice="1.0 0.0 0.0 0.0 1.0 0.0 0.0 0.0 1.0" Properties=species:S:1:pos:R:3:forces:R:3 R1=H R2=H R3=CH3 R4=CH3 leaving_group=Cl nucleophile=Cl rxn=sn2 config=rcc label=H_H_CH3_CH3_Cl_Cl_sn2_rcc conformation=0 reactant_id=H_H_CH3_CH3_Cl_none_-_r product_id=H_H_CH3_CH3_none_Cl_sn2_pc mp2_author_energy=-29302.391748605172 mp2_my_energy=0 hash=59123 address=T id=71 energy=-17370.580778549236 free_energy=-17370.580778549236 cell="(1,0,0), (0,1,0), (0,0,1)" stress="4.27202420015042e-08 3.141046756569813e-07 7.766516143375504e-08 3.141046756569813e-07 -4.3208580661872404e-07 -1.0879221925875986e-07 7.766516143375504e-08 -1.0879221925875986e-07 3.849859671565688e-08" pbc="F F F"
C        0.33729744      -0.76922013      -0.05317709       0.05871487      -0.12069048      -0.02085160
C        1.65635910      -0.04263434       0.01927112       0.01181001      -0.04392925      -0.01087128
H        2.32843841      -0.52363685       0.73610989       0.04448309       0.05326745       0.02951926
F       -0.60044791       1.49151971       0.29436533      -0.04338142       0.18754446       0.04854832
Cl       0.64693356      -2.57290212      -0.37808494      -0.05140278      -0.01252766      -0.01704059
H       -0.29149056      -0.40574894      -0.85313356       0.05062388       0.01297111       0.03679094
H       -0.22297141      -0.70499766       0.86991805       0.05349052      -0.00103739      -0.02545422
H        1.38605402       0.97101501       0.32083066      -0.16756955      -0.06854121      -0.04394633
H        2.14571887      -0.03412910      -0.95868700       0.04323137      -0.00705704       0.00330551
9
Lattice="1.0 0.0 0.0 0.0 1.0 0.0 0.0 0.0 1.0" Properties=species:S:1:pos:R:3:forces:R:3 R1=H R2=H R3=CH3 R4=CH3 leaving_group=Cl nucleophile=Cl rxn=sn2 config=rcc label=H_H_CH3_CH3_Cl_Cl_sn2_rcc conformation=0 reactant_id=H_H_CH3_CH3_Cl_none_-_r product_id=H_H_CH3_CH3_none_Cl_sn2_pc mp2_author_energy=-29302.391748605172 mp2_my_energy=0 hash=59123 address=T id=71 energy=-17370.603175506418 free_energy=-17370.603175506418 cell="(1,0,0), (0,1,0), (0,0,1)" stress="1.039306578923258e-07 4.97905624892913e-08 3.2958702823179436e-08 4.97905624892913e-08 -2.559963884058061e-07 -8.5284921151465e-08 3.2958702823179436e-08 -8.5284921151465e-08 -1.396477087964179e-08" pbc="F F F"
C        0.34892713      -0.79243336      -0.05736400       0.01985641      -0.03932203      -0.00801141
C        1.65699533      -0.04982289       0.01642762       0.00116193      -0.01217507      -0.00571932
H        2.33347281      -0.49757061       0.75095482       0.00648517       0.04723432       0.02800284
F       -0.59051928       1.53969666       0.31176980       0.01623351       0.08110714       0.03579493
Cl       0.63137173      -2.58630437      -0.38972767      -0.02637859      -0.02248120      -0.02043363
H       -0.28070844      -0.40706558      -0.84677969       0.01845064      -0.00203158       0.00982861
H       -0.20770425      -0.71626887       0.86752855       0.02601118      -0.01855832      -0.00505666
H        1.33532508       0.95726435       0.30011891      -0.08669517      -0.02229971      -0.04031318
H        2.15873141      -0.03822974      -0.95551589       0.02487491      -0.01147355       0.00590783
9
Lattice="1.0 0.0 0.0 0.0 1.0 0.0 0.0 0.0 1.0" Properties=species:S:1:pos:R:3:forces:R:3 R1=H R2=H R3=CH3 R4=CH3 leaving_group=Cl nucleophile=Cl rxn=sn2 config=rcc label=H_H_CH3_CH3_Cl_Cl_sn2_rcc conformation=0 reactant_id=H_H_CH3_CH3_Cl_none_-_r product_id=H_H_CH3_CH3_none_Cl_sn2_pc mp2_author_energy=-29302.391748605172 mp2_my_energy=0 hash=59123 address=T id=71 energy=-17370.617973349792 free_energy=-17370.617973349792 cell="(1,0,0), (0,1,0), (0,0,1)" stress="7.411158235842881e-08 -1.6933889081894258e-08 1.1422528127139901e-08 -1.6933889081894258e-08 -8.333564268705181e-08 -4.5108645724173e-08 1.1422528127139901e-08 -4.5108645724173e-08 -1.6968352721063663e-08" pbc="F F F"
C        0.35538509      -0.81459088      -0.06192112       0.00289480      -0.00951678      -0.00281076