9
Lattice="1.0 0.0 0.0 0.0 1.0 0.0 0.0 0.0 1.0" Properties=species:S:1:pos:R:3:forces:R:3 R1=H R2=H R3=CH3 R4=CH3 leaving_group=Cl nucleophile=Cl rxn=sn2 config=rcc label=H_H_CH3_CH3_Cl_Cl_sn2_rcc conformation=0 reactant_id=H_H_CH3_CH3_Cl_none_-_r product_id=H_H_CH3_CH3_none_Cl_sn2_pc mp2_author_energy=-29302.391748605172 mp2_my_energy=0 hash=59123 address=T id=71 energy=-17372.33216497299 free_energy=-17372.33216497299 cell="(1,0,0), (0,1,0), (0,0,1)" pbc="F F F"
C        0.09142836      -0.02057665       0.00018700      -0.00383810       0.00153641      -0.00068481
C        1.58722280       0.14924827      -0.00111085       0.00020147      -0.00237977      -0.00061630
H        2.03195864      -0.84661872      -0.00635447      -0.00043287       0.00066109       0.00360198
F       -0.53491861       1.24651010      -0.01033438       0.00123778      -0.00105707       0.00337249
Cl       0.88543890      -3.39675651       0.00603569      -0.00050197      -0.00038193      -0.00016305
H       -0.24798218      -0.56713807      -0.87777751      -0.00113173       0.00148985       0.00279851
H       -0.24989953      -0.55273097       0.88632969       0.00349898      -0.00246302      -0.00540624
H        1.91405155       0.69490750       0.88785996      -0.00213133       0.00382493      -0.00088743
H        1.90859158       0.70242064      -0.88742268       0.00309776      -0.00123049      -0.00201515
9
Lattice="1.0 0.0 0.0 0.0 1.0 0.0 0.0 0.0 1.0" Properties=species:S:1:pos:R:3:forces:R:3 R1=H R2=H R3=CH3 R4=CH3 leaving_group=Cl nucleophile=Cl rxn=sn2 config=rcc label=H_H_CH3_CH3_Cl_Cl_sn2_rcc conformation=0 reactant_id=H_H_CH3_CH3_Cl_none_-_r product_id=H_H_CH3_CH3_none_Cl_sn2_pc mp2_author_energy=-29302.391748605172 mp2_my_energy=0 hash=59123 address=T id=71 energy=-17372.331989944265 free_energy=-17372.331989944265 cell="(1,0,0), (0,1,0), (0,0,1)" stress="-2.4717076145941725e-10 8.495727543635977e-09 1.455055178113369e-10 8.495727543635977e-09 -9.093949117760081e-10 3.6269710411501103e-09 1.455055178113369e-10 3.6269710411501103e-09 1.302881237283957e-10" pbc="F F F"
C        0.09398394      -0.02344206       0.01668866      -0.00070785       0.00095692      -0.00046292
C        1.58926623       0.15332250       0.00984724      -0.00049535      -0.00089031      -0.00035445
H        2.03895208      -0.83910511       0.05813963      -0.00182448      -0.00163229      -0.00226289
F       -0.53910870       1.23845164      -0.05148716       0.00076012       0.00181503       0.00104449
Cl       0.86784631      -3.39917295      -0.09308503       0.00456050      -0.00035425       0.00298854
H       -0.24311193      -0.61191171      -0.83390601      -0.00141204       0.00233756      -0.00124000
H       -0.24487103      -0.51553662       0.92705656      -0.00125000       0.00024538      -0.00099539
H        1.91066157       0.74861857       0.86865691       0.00039931      -0.00293046       0.00076152
H        1.91227304       0.65804134      -0.90449835      -0.00003019       0.00045242       0.00052109
9
Lattice="1.0 0.0 0.0 0.0 1.0 0.0 0.0 0.0 1.0" Properties=species:S:1:pos:R:3:forces:R:3 R1=H R2=H R3=CH3 R4=CH3 leaving_group=Cl nucleophile=Cl rxn=sn2 config=rcc label=H_H_CH3_CH3_Cl_Cl_sn2_rcc conformation=0 reactant_id=H_H_CH3_CH3_Cl_none_-_r product_id=H_H_CH3_CH3_none_Cl_sn2_pc mp2_author_energy=-29302.391748605172 mp2_my_energy=0 hash=59123 address=T id=71 energy=-17372.33125226276 free_energy=-17372.33125226276 cell="(1,0,0), (0,1,0), (0,0,1)" stress="-6.936737908551038e-10 2.1112946802918473e-08 1.2698940387275977e-09 2.1112946802918473e-08 -6.814002650869529e-09 1.6060318316881881e-09 1.2698940387275977e-09 1.6060318316881881e-09 2.751654540385536e-11" pbc="F F F"
C        0.09409449      -0.02112152       0.03479610      -0.00177201       0.00260395       0.00006610
C        1.58932059       0.15556073       0.02139693      -0.00123527      -0.00203871      -0.00024564
H        2.04081155      -0.83290567       0.11385113      -0.00442261      -0.00380036      -0.00292950
F       -0.53900662       1.23512534      -0.10285743       0.00190331       0.00437382      -0.00060141
Cl       0.86688498      -3.41961703      -0.19479891       0.01137353      -0.00278645       0.00138629
H       -0.24148764      -0.65536756      -0.78226992      -0.00360903       0.00320055       0.00023019
H       -0.24677715      -0.46093834       0.97107341      -0.00308878       0.00427271       0.00038077
H        1.90980004       0.79082465       0.85151107       0.00127065      -0.00500964       0.00106743
H        1.91225128       0.61770500      -0.91528991      -0.00041978      -0.00081587       0.00064576
9
Lattice="1.0 0.0 0.0 0.0 1.0 0.0 0.0 0.0 1.0" Properties=species:S:1:pos:R:3:forces:R:3 R1=H R2=H R3=CH3 R4=CH3 leaving_group=Cl nucleophile=Cl rxn=sn2 config=rcc label=H_H_CH3_CH3_Cl_Cl_sn2_rcc conformation=0 reactant_id=H_H_CH3_CH3_Cl_none_-_r product_id=H_H_CH3_CH3_none_Cl_sn2_pc mp2_author_energy=-29302.391748605172 mp2_my_energy=0 hash=59123 address=T id=71 energy=-17372.33178389314 free_energy=-17372.33178389314 cell="(1,0,0), (0,1,0), (0,0,1)" stress="-1.1680296728061578e-09 3.157779872384908e-08 3.1154630308412584e-09 3.157779872384908e-08 -1.0676922966396619e-08 -4.1042816357301976e-09 3.1154630308412584e-09 -4.1042816357301976e-09 -1.2570245061436132e-09" pbc="F F F"
C        0.09341770      -0.01769970       0.05404295      -0.00267946       0.00399319       0.00128278
C        1.58885371       0.15665404       0.03320669      -0.00186641      -0.00307631       0.00014679
H        2.04141843      -0.82618302       0.16919605      -0.00652256      -0.00557239      -0.00226363
F       -0.53787875       1.22932355      -0.15735576       0.00286778       0.00586554      -0.00382222
Cl       0.87040108      -3.44016314      -0.29967469       0.01711726      -0.00455569      -0.00328115
H       -0.24101156      -0.69795389      -0.72538249      -0.00568031       0.00250432       0.00376574
H       -0.25057146      -0.39986726       1.01419507      -0.00443708       0.00980343       0.00289469
H        1.90983098       0.82952858       0.83302300       0.00234450      -0.00592239       0.00080768
H        1.91143137       0.57562644      -0.92383837      -0.00114372      -0.00303969       0.00046933
9
Lattice="1.0 0.0 0.0 0.0 1.0 0.0 0.0 0.0 1.0" Properties=species:S:1:pos:R:3:forces:R:3 R1=H R2=H R3=CH3 R4=CH3 leaving_group=Cl nucleophile=Cl rxn=sn2 config=rcc label=H_H_CH3_CH3_Cl_Cl_sn2_rcc conformation=0 reactant_id=H_H_CH3_CH3_Cl_none_-_r product_id=H_H_CH3_CH3_none_Cl_sn2_pc mp2_author_energy=-29302.391748605172 mp2_my_energy=0 hash=59123 address=T id=71 energy=-17372.333152408108 free_energy=-17372.333152408108 cell="(1,0,0), (0,1,0), (0,0,1)" stress="-1.2492586869196398e-09 3.1374811014237615e-08 4.082235396617385e-09 3.1374811014237615e-08 -6.196324086116972e-09 -6.851391228220767e-09 4.082235396617385e-09 -6.851391228220767e-09 -2.6168324903095187e-09" pbc="F F F"
C        0.09356409      -0.01671845       0.07261459      -0.00268806       0.00387973       0.00196274
C        1.58897379       0.15719427       0.04459071      -0.00186150      -0.00325653       0.00033973
H        2.04383105      -0.81687570       0.22670089      -0.00643196      -0.00585740      -0.00238774
F       -0.53756879       1.21692293      -0.20778559       0.00276256       0.00472138      -0.00624320
Cl       0.86814415      -3.44605909      -0.40142872       0.01708113      -0.00299448      -0.00584693
H       -0.23867236      -0.73910801      -0.66886172      -0.00589756       0.00063905       0.00650806
H       -0.25273477      -0.34455046       1.05174571      -0.00415523       0.01224921       0.00416161
H        1.90908148       0.86802092       0.81130524       0.00292404      -0.00620550       0.00098197
H        1.91127288       0.53043918      -0.93146866      -0.00173343      -0.00317546       0.00052374
9
Lattice="1.0 0.0 0.0 0.0 1.0 0.0 0.0 0.0 1.0" Properties=species:S:1:pos:R:3:forces:R:3 R1=H R2=H R3=CH3 R4=CH3 leaving_group=Cl nucleophile=Cl rxn=sn2 config=rcc label=H_H_CH3_CH3_Cl_Cl_sn2_rcc conformation=0 reactant_id=H_H_CH3_CH3_Cl_none_-_r product_id=H_H_CH3_CH3_none_Cl_sn2_pc mp2_author_energy=-29302.391748605172 mp2_my_energy=0 hash=59123 address=T id=71 energy=-17372.335091427252 free_energy=-17372.335091427252 cell="(1,0,0), (0,1,0), (0,0,1)" stress="-8.668548673478961e-10 1.9517286978209774e-08 2.935955127709666e-09 1.9517286978209774e-08 3.5572746802964915e-09 -6.028626354333308e-09 2.935955127709666e-09 -6.028626354333308e-09 -3.6642043980543004e-09" pbc="F F F"
C        0.09408531      -0.01748553       0.09461068      -0.00170864       0.00227080       0.00201711
C        1.58932614       0.15633200       0.05801337      -0.00116144      -0.00230869       0.00046850
H        2.04692464      -0.80199725       0.30404872      -0.00398537      -0.00491273      -0.00476452
F       -0.53761809       1.19638374      -0.26170602       0.00158387       0.00057046      -0.00951160
Cl       0.86275698      -3.43598868      -0.52400999       0.01069614       0.00071626      -0.00604991
H       -0.23495967      -0.78526795      -0.60156221      -0.00345180      -0.00343163       0.00911505
H       -0.25415004      -0.28447986       1.09120140      -0.00274575       0.01284642       0.00443486
H        1.90686111       0.91651578       0.77697869       0.00297132      -0.00659765       0.00305543
H        1.91266513       0.46525334      -0.94016219      -0.00219833       0.00084678       0.00123509
9
Lattice="1.0 0.0 0.0 0.0 1.0 0.0 0.0 0.0 1.0" Properties=species:S:1:pos:R:3:forces:R:3 R1=H R2=H R3=CH3 R4=CH3 leaving_group=Cl nucleophile=Cl rxn=sn2 config=rcc label=H_H_CH3_CH3_Cl_Cl_sn2_rcc conformation=0 reactant_id=H_H_CH3_CH3_Cl_none_-_r product_id=H_H_CH3_CH3_none_Cl_sn2_pc mp2_author_energy=-29302.391748605172 mp2_my_energy=0 hash=59123 address=T id=71 energy=-17372.336457995618 free_energy=-17372.336457995618 cell="(1,0,0), (0,1,0), (0,0,1)" stress="-1.212479757544722e-10 1.7533044705051865e-09 -7.956366127330556e-10 1.7533044705051865e-09 1.1435033301272012e-08 -1.3836036125028693e-09 -7.956366127330556e-10 -1.3836036125028693e-09 -3.541081478312148e-09" pbc="F F F"
C        0.09557462      -0.02037346       0.11819538      -0.00025588       0.00010934       0.00142051
C        1.59029198       0.15516847       0.07256061      -0.00012903      -0.00060733       0.00059862
H        2.05165639      -0.77713017       0.39793901      -0.00051438      -0.00439979      -0.00979323
F       -0.53870898       1.16801195      -0.31259818       0.00015995      -0.00500429      -0.01358586
Cl       0.85074182      -3.41374954      -0.65894024       0.00123555       0.00377193      -0.00340021
H       -0.22856139      -0.83153282      -0.53022107       0.00082782      -0.00819017       0.01115334
H       -0.25366297      -0.22648634       1.12856354      -0.00149683       0.01276649       0.00357841
H        1.90201514       0.97256912       0.72842230       0.00266827      -0.00759295       0.00795441
H        1.91654490       0.38278838      -0.94650889      -0.00249546       0.00914677       0.00207402
9
Lattice="1.0 0.0 0.0 0.0 1.0 0.0 0.0 0.0 1.0" Properties=species:S:1:pos:R:3:forces:R:3 R1=H R2=H R3=CH3 R4=CH3 leaving_group=Cl nucleophile=Cl rxn=sn2 config=rcc label=H_H_CH3_CH3_Cl_Cl_sn2_rcc conformation=0 reactant_id=H_H_CH3_CH3_Cl_none_-_r product_id=H_H_CH3_CH3_none_Cl_sn2_pc mp2_author_energy=-29302.391748605172 mp2_my_energy=0 hash=59123 address=T id=71 energy=-17372.33651962035 free_energy=-17372.33651962035 cell="(1,0,0), (0,1,0), (0,0,1)" stress="1.9929314102364177e-10 -7.804001035080422e-09 -3.5605149832848715e-09 -7.804001035080422e-09 1.1890218445302145e-08 2.4474829837178186e-09 -3.5605149832848715e-09 2.4474829837178186e-09 -2.4127105613172827e-09" pbc="F F F"
C        0.09704998      -0.02273166       0.13264924       0.00054028      -0.00096800       0.00080909
C        1.59125489       0.15503447       0.08164955       0.00045324       0.00039708       0.00063088
H        2.05541506      -0.75675351       0.45712458       0.00149372      -0.00471878      -0.01289455
F       -0.53992076       1.14745017      -0.34212612      -0.00024519      -0.00764790      -0.01508333
Cl       0.83979493      -3.39960231      -0.74271260      -0.00375206       0.00400403      -0.00062873
H       -0.22310078      -0.85855425      -0.48643618       0.00305558      -0.00979148       0.01125727
H       -0.25256492      -0.19230804       1.14951713      -0.00119990       0.01208518       0.00241172
H        1.89804217       1.00664960       0.69478473       0.00220119      -0.00792608       0.01145378
H        1.91992095       0.33008112      -0.94703789      -0.00254686       0.01456594       0.00204386
9
Lattice="1.0 0.0 0.0 0.0 1.0 0.0 0.0 0.0 1.0" Properties=species:S:1:pos:R:3:forces:R:3 R1=H R2=H R3=CH3 R4=CH3 leaving_group=Cl nucleophile=Cl rxn=sn2 config=rcc label=H_H_CH3_CH3_Cl_Cl_sn2_rcc conformation=0 reactant_id=H_H_CH3_CH3_Cl_none_-_r product_id=H_H_CH3_CH3_none_Cl_sn2_pc mp2_author_energy=-29302.391748605172 mp2_my_energy=0 hash=59123 address=T id=71 energy=-17372.3365177427 free_energy=-17372.3365177427 cell="(1,0,0), (0,1,0), (0,0,1)" stress="-2.0781525013679163e-11 -7.821556374047622e-09 -3.361407983850638e-09 -7.821556374047622e-09 4.1919443823843146e-09 1.352705894551958e-09 -3.361407983850638e-09 1.352705894551958e-09 -4.324175900279151e-09" pbc="F F F"
C        0.09766515      -0.02381688       0.13334898       0.00057407      -0.00083452       0.00090259
C        1.59167806       0.15546384       0.08236780       0.00052882       0.00063834       0.00067000
H        2.05670450      -0.75431908       0.46157076       0.00169225      -0.00512920      -0.01290353
F       -0.54053011       1.14451646      -0.34432593      -0.00008713      -0.00665259      -0.01543637
Cl       0.83567186      -3.39627453      -0.74793124      -0.00374664       0.00181419      -0.00104262
H       -0.22123255      -0.86157619      -0.48376916       0.00299265      -0.01027355       0.01107656
H       -0.25202796      -0.19135773       1.15049712      -0.00147158       0.01233914       0.00323598
H        1.89722629       1.00969128       0.69243327       0.00208226      -0.00720006       0.01210388
H        1.92073628       0.32693842      -0.94677914      -0.00256471       0.01529825       0.00139351
9
Lattice="1.0 0.0 0.0 0.0 1.0 0.0 0.0 0.0 1.0" Properties=species:S:1:pos:R:3:forces:R:3 R1=H R2=H R3=CH3 R4=CH3 leaving_group=Cl nucleophile=Cl rxn=sn2 config=rcc label=H_H_CH3_CH3_Cl_Cl_sn2_rcc conformation=0 reactant_id=H_H_CH3_CH3_Cl_none_-_r product_id=H_H_CH3_CH3_none_Cl_sn2_pc mp2_author_energy=-29302.391748605172 mp2_my_energy=0 hash=59123 address=T id=71 energy=-17372.325585922044 free_energy=-17372.325585922044 cell="(1,0,0), (0,1,0), (0,0,1)" stress="-4.1011025155608185e-10 1.587954878362029e-08 -1.2000886449021125e-09 1.587954878362029e-08 -6.840917033362019e-08 3.0736206892262118e-09 -1.2000886449021125e-09 3.0736206892262118e-09 -1.9787927795873753e-09" pbc="F F F"
C        0.10880777      -0.04689250       0.04204916      -0.00144213       0.00612748      -0.00001358
C        1.59938019       0.16668606       0.03707280      -0.00107357       0.00255793      -0.00017277
H        2.07666370      -0.79660597       0.21688258      -0.00708617      -0.00474511      -0.01628802
F       -0.55020882       1.19160933      -0.13590164      -0.00216975       0.00468839      -0.01051662
Cl       0.77293783      -3.35968308      -0.28192439       0.00863157      -0.02539765       0.00342187
H       -0.20628320      -0.71292808      -0.75604505       0.00029459      -0.00127715       0.00427750
H       -0.23082063      -0.46809553       0.98734466      -0.00190370       0.01333089       0.00400159
H        1.88688318       0.87665317       0.81719625       0.00678243      -0.01120672       0.01095278
H        1.92853148       0.55852219      -0.92926192      -0.00203328       0.01592193       0.00433726
9
Lattice="1.0 0.0 0.0 0.0 1.0 0.0 0.0 0.0 1.0" Properties=species:S:1:pos:R:3:forces:R:3 R1=H R2=H R3=CH3 R4=CH3 leaving_group=Cl nucleophile=Cl rxn=sn2 config=rcc label=H_H_CH3_CH3_Cl_Cl_sn2_rcc conformation=0 reactant_id=H_H_CH3_CH3_Cl_none_-_r product_id=H_H_CH3_CH3_none_Cl_sn2_pc mp2_author_energy=-29302.391748605172 mp2_my_energy=0 hash=59123 address=T id=71 energy=-17372.288726802028 free_energy=-17372.288726802028 cell="(1,0,0), (0,1,0), (0,0,1)" stress="-9.836802939994044e-09 -1.333737299017361e-08 -9.375011819001414e-09 -1.333737299017361e-08 -3.171458168493933e-07 -1.2465496667475001e-08 -9.375011819001414e-09 -1.2465496667475001e-08 -3.2773148385127927e-09" pbc="F F F"
C        0.11787264      -0.08992634       0.03045008      -0.00050901       0.03556004       0.00123172
C        1.60634359       0.14690548       0.03199367      -0.00347949       0.03509475       0.00103287
H        2.12229843      -0.76835616       0.31405502      -0.06873193      -0.03260186      -0.05705742
F       -0.53621039       1.16582912      -0.01971090      -0.05829649      -0.00189556      -0.04469128
Cl       0.71840431      -3.17202233      -0.24607885       0.00172958      -0.10296105       0.00180980
H       -0.21208506      -0.66792429      -0.82650919       0.03870285      -0.03128491       0.02293952
H       -0.21593604      -0.60327268       0.92939530       0.01389320       0.04736726       0.01412376
H        1.83833211       0.94243496       0.74353770       0.07298039      -0.01432473       0.04998329
H        1.94687194       0.45559785      -0.95972038       0.00371088       0.06504606       0.01062772
9
Lattice="1.0 0.0 0.0 0.0 1.0 0.0 0.0 0.0 1.0" Properties=species:S:1:pos:R:3:forces:R:3 R1=H R2=H R3=CH3 R4=CH3 leaving_group=Cl nucleophile=Cl rxn=sn2 config=rcc label=H_H_CH3_CH3_Cl_Cl_sn2_rcc conformation=0 reactant_id=H_H_CH3_CH3_Cl_none_-_r product_id=H_H_CH3_CH3_none_Cl_sn2_pc mp2_author_energy=-29302.391748605172 mp2_my_energy=0 hash=59123 address=T id=71 energy=-17372.093059498395 free_energy=-17372.093059498395 cell="(1,0,0), (0,1,0), (0,0,1)" stress="-7.002504646621881e-08 -1.3390597544366037e-07 3.605732027080081e-08 -1.3390597544366037e-07 -1.0039839587649865e-06 -2.3893254749504656e-07 3.605732027080081e-08 -2.3893254749504656e-07 1.2787633983780517e-07" pbc="F F F"
C        0.11845424      -0.15533110       0.03007133      -0.16087527       0.49260545       0.00640265
C        1.61270767       0.08147262       0.03128492      -0.05615787       0.17299580      -0.01031079
H        2.25120121      -0.70522180       0.42801172      -0.41722201      -0.18844839      -0.08483405
F       -0.42507551       1.17133611       0.06052798      -0.26997718      -0.21718288       0.01952223
Cl       0.71749403      -2.98787565      -0.26226167       0.07922907      -0.33289522      -0.01006388
H       -0.28631000      -0.61191924      -0.86397635       0.16462333      -0.19348611       0.07371514
H       -0.24305786      -0.68577218       0.90824933       0.07534332       0.08369019      -0.10146219
H        1.70036696       0.97451471       0.64592873       0.51276950       0.09776741       0.10248619
H        1.94011076       0.32806211      -0.98042353       0.07226711       0.08495376       0.00454469
9
Lattice="1.0 0.0 0.0 0.0 1.0 0.0 0.0 0.0 1.0" Properties=species:S:1:pos:R:3:forces:R:3 R1=H R2=H R3=CH3 R4=CH3 leaving_group=Cl nucleophile=Cl rxn=sn2 config=rcc label=H_H_CH3_CH3_Cl_Cl_sn2_rcc conformation=0 reactant_id=H_H_CH3_CH3_Cl_none_-_r product_id=H_H_CH3_CH3_none_Cl_sn2_pc mp2_author_energy=-29302.391748605172 mp2_my_energy=0 hash=59123 address=T id=71 energy=-17371.610465106583 free_energy=-17371.610465106583 cell="(1,0,0), (0,1,0), (0,0,1)" stress="-1.0333131980674625e-07 -8.367795055140385e-07 -2.3790177268406666e-08 -8.367795055140385e-07 -5.627256232743519e-07 -6.340574700658264e-07 -2.3790177268406666e-08 -6.340574700658264e-07 8.897369822435664e-08" pbc="F F F"
C        0.15366376      -0.26350596       0.03115458      -0.95761998       2.52980216       0.04135194
C        1.62497050       0.04361921       0.03271903      -0.07904321       0.21586026       0.00541529
H        2.34248438      -0.66344465       0.44867867      -0.51263103      -0.26956763      -0.06105408
F       -0.36601107       1.21906309       0.05722670       0.05649958      -1.41757088       0.11612064
Cl       0.70030288      -2.91492354      -0.26130179       0.17800031      -0.74227029      -0.06106652
H       -0.32291223      -0.56922310      -0.88111265       0.23635151      -0.56906876       0.01320659
H       -0.25924157      -0.70430313       0.92957820       0.10942526      -0.03501201      -0.17844312
H        1.58794172       0.95443425       0.62169897       0.86427525       0.20602883       0.13697181
H        1.92469314       0.30754943      -0.98122924       0.10474231       0.08179833      -0.01250254
9
Lattice="1.0 0.0 0.0 0.0 1.0 0.0 0.0 0.0 1.0" Properties=species:S:1:pos:R:3:forces:R:3 R1=H R2=H R3=CH3 R4=CH3 leaving_group=Cl nucleophile=Cl rxn=sn2 config=rcc label=H_H_CH3_CH3_Cl_Cl_sn2_rcc conformation=0 reactant_id=H_H_CH3_CH3_Cl_none_-_r product_id=H_H_CH3_CH3_none_Cl_sn2_pc mp2_author_energy=-29302.391748605172 mp2_my_energy=0 hash=59123 address=T id=71 energy=-17370.928997136256 free_energy=-17370.928997136256 cell="(1,0,0), (0,1,0), (0,0,1)" stress="-2.551298306891208e-07 -8.521998919364826e-07 -9.402209866361429e-08 -8.521998919364826e-07 -1.2340332526745195e-06 -5.650306398557803e-07 -9.402209866361429e-08 -5.650306398557803e-07 -3.105159875408387e-07" pbc="F F F"
C        0.20752572      -0.40644948       0.02596009      -0.83515058       2.51086985       0.19137897
C        1.62944296       0.03121232       0.03338723       0.00293120       0.21638507       0.00831439
H        2.37141812      -0.64789103       0.45231491      -0.33041375      -0.19930696      -0.04543140
F       -0.36925724       1.29911902       0.05109459       0.19736775      -1.23900374       0.03350023
Cl       0.69026672      -2.87274340      -0.25801786       0.22576434      -1.07665532      -0.11141159
H       -0.33572302      -0.53657934      -0.88049440       0.03513193      -0.41001874      -0.20487074
H       -0.26582732      -0.70280869       0.94071152      -0.00311502      -0.10219830       0.02069126
H        1.53905564       0.94282020       0.61346730       0.64751271       0.21662609       0.10824063
H        1.91898993       0.30258600      -0.98101092       0.05997142       0.08330204      -0.00041175
9
Lattice="1.0 0.0 0.0 0.0 1.0 0.0 0.0 0.0 1.0" Properties=species:S:1:pos:R:3:forces:R:3 R1=H R2=H R3=CH3 R4=CH3 leaving_group=Cl nucleophile=Cl rxn=sn2 config=rcc label=H_H_CH3_CH3_Cl_Cl_sn2_rcc conformation=0 reactant_id=H_H_CH3_CH3_Cl_none_-_r product_id=H_H_CH3_CH3_none_Cl_sn2_pc mp2_author_energy=-29302.391748605172 mp2_my_energy=0 hash=59123 address=T id=71 energy=-17370.49297839043 free_energy=-17370.49297839043 cell="(1,0,0), (0,1,0), (0,0,1)" stress="-3.2171718641641803e-07 -5.448481795727283e-07 -7.634598001446177e-08 -5.448481795727283e-07 -1.392260241578e-06 -3.720015311266714e-07 -7.634598001446177e-08 -3.720015311266714e-07 -3.548969291316259e-07" pbc="F F F"
C        0.24962775      -0.53296546       0.01704902      -0.38556457       1.29756531       0.11686486
C        1.62926527       0.02032192       0.03273735       0.02471821       0.17479522       0.01646522
H        2.38801224      -0.63779487       0.45491637      -0.18777498      -0.10373570      -0.03081919
F       -0.37927437       1.36146541       0.04970139       0.10712984      -0.62586969       0.00031690
Cl       0.67895359      -2.81844561      -0.25258058       0.16705476      -0.85696592      -0.09577475
H       -0.33770051      -0.51587791      -0.87049752      -0.07670195      -0.13213254      -0.18104322
H       -0.26555139      -0.69758609       0.93933813      -0.07975321      -0.00837417       0.09822588
H        1.50641288       0.93211813       0.60772524       0.39359980       0.18904062       0.07583074
H        1.91614605       0.29803006      -0.98097694       0.03729210       0.06567687      -0.00006644
9
Lattice="1.0 0.0 0.0 0.0 1.0 0.0 0.0 0.0 1.0" Properties=species:S:1:pos:R:3:forces:R:3 R1=H R2=H R3=CH3 R4=CH3 leaving_group=Cl nucleophile=Cl rxn=sn2 config=rcc label=H_H_CH3_CH3_Cl_Cl_sn2_rcc conformation=0 reactant_id=H_H_CH3_CH3_Cl_none_-_r product_id=H_H_CH3_CH3_none_Cl_sn2_pc mp2_author_energy=-29302.391748605172 mp2_my_energy=0 hash=59123 address=T id=71 energy=-17370.527089007726 free_energy=-17370.527089007726 cell="(1,0,0), (0,1,0), (0,0,1)" stress="5.7865705795438e-08 1.3540111246503932e-07 2.5007103025802864e-08 1.3540111246503932e-07 2.50416081486484e-07 5.3682019854498735e-08 2.5007103025802864e-08 5.3682019854498735e-08 8.204830301392216e-08" pbc="F F F"
C        0.32039329      -0.78627276      -0.00728590       0.06073830      -0.21869747      -0.02184122
C        1.62221902      -0.01988104       0.02815612      -0.00592593      -0.03417653      -0.00447623
H        2.42586686      -0.61710498       0.46300589       0.03006172       0.01881363       0.01216731
F       -0.40111650       1.48181987       0.05288287      -0.02064459       0.09990962       0.00996887
Cl       0.64174255      -2.62177199      -0.23094702      -0.03128074       0.17266608       0.01653483
H       -0.31381483      -0.49738463      -0.82801696       0.01965676       0.01689243       0.03601538
H       -0.24244374      -0.70022567       0.91146291       0.01914135      -0.00174123      -0.02438892
H        1.42392271       0.88871428       0.58943724      -0.06976370      -0.03290530      -0.02213022
H        1.90912214       0.28137252      -0.98128270      -0.00198318      -0.02076123      -0.00184979
9
Lattice="1.0 0.0 0.0 0.0 1.0 0.0 0.0 0.0 1.0" Properties=species:S:1:pos:R:3:forces:R:3 R1=H R2=H R3=CH3 R4=CH3 leaving_group=Cl nucleophile=Cl rxn=sn2 config=rcc label=H_H_CH3_CH3_Cl_Cl_sn2_rcc conformation=0 reactant_id=H_H_CH3_CH3_Cl_none_-_r product_id=H_H_CH3_CH3_none_Cl_sn2_pc mp2_author_energy=-29302.391748605172 mp2_my_energy=0 hash=59123 address=T id=71 energy=-17370.564214834863 free_energy=-17370.564214834863 cell="(1,0,0), (0,1,0), (0,0,1)" stress="-1.7613294152299986e-08 8.420379192972241e-08 4.531717563877299e-08 8.420379192972241e-08 -6.657799916340205e-08 -6.880011620692426e-08 4.531717563877299e-08 -6.880011620692426e-08 -2.4676542181186226e-08" pbc="F F F"
C        0.34406113      -0.81948037      -0.01074665       0.00844100      -0.01105469      -0.00207218
C        1.63329884      -0.04169379       0.01362747       0.00455354      -0.00786045      -0.00595388
H        2.41671265      -0.55057228       0.58129320      -0.00382823       0.02384824       0.04349736
F       -0.44369970       1.58144564       0.14782615      -0.01812890       0.03323225       0.03926985
Cl       0.62862581      -2.61843673      -0.31021125      -0.00494837       0.00165482      -0.02696522
H       -0.30882974      -0.45860515      -0.79039574       0.00250008       0.01388343       0.01151943
H       -0.19202435      -0.74307916       0.92680081       0.01735555      -0.01275695       0.00409311
H        1.32424329       0.91415135       0.44210580      -0.03475341       0.00995697      -0.05494072
H        1.98350357       0.14553608      -1.00288734       0.02880874      -0.05090361      -0.00844775
9
Lattice="1.0 0.0 0.0 0.0 1.0 0.0 0.0 0.0 1.0" Properties=species:S:1:pos:R:3:forces:R:3 R1=H R2=H R3=CH3 R4=CH3 leaving_group=Cl nucleophile=Cl rxn=sn2 config=rcc label=H_H_CH3_CH3_Cl_Cl_sn2_rcc conformation=0 reactant_id=H_H_CH3_CH3_Cl_none_-_r product_id=H_H_CH3_CH3_none_Cl_sn2_pc mp2_author_energy=-29302.391748605172 mp2_my_energy=0 hash=59123 address=T id=71 energy=-17370.604055236945 free_energy=-17370.604055236945 cell="(1,0,0), (0,1,0), (0,0,1)" stress="-2.9329567604268205e-08 5.7877854091512596e-08 5.5128750425784705e-08 5.7877854091512596e-08 -4.683021525311095e-08 -9.246651638533204e-08 5.5128750425784705e-08 -9.246651638533204e-08 -4.143937063333391e-08" pbc="F F F"
C        0.35307025      -0.82935192      -0.01926287       0.00375951      -0.00368863      -0.00381495
C        1.63832605      -0.04800859      -0.00629644       0.00242800      -0.00269353      -0.00856744
H        2.37795588      -0.47660851       0.67662332      -0.01614002       0.03058726       0.03989210
F       -0.47494796       1.63510927       0.25785179      -0.01460021       0.02107359       0.04738996
Cl       0.62450256      -2.61581175      -0.37291268      -0.00200825       0.00127698      -0.02545708
H       -0.31967287      -0.43956656      -0.77001568      -0.00420524       0.00815632       0.00782387
H       -0.15629598      -0.77238941       0.93531164       0.01466216      -0.01098453       0.00310040
H        1.27250356       0.94122081       0.30435748      -0.02088335       0.01144671      -0.05787207
H        2.07045003       0.01467225      -1.00824412       0.03698739      -0.05517417      -0.00249479
9
Lattice="1.0 0.0 0.0 0.0 1.0 0.0 0.0 0.0 1.0" Properties=species:S:1:pos:R:3:forces:R:3 R1=H R2=H R3=CH3 R4=CH3 leaving_group=Cl nucleophile=Cl rxn=sn2 config=rcc label=H_H_CH3_CH3_Cl_Cl_sn2_rcc conformation=0 reactant_id=H_H_CH3_CH3_Cl_none_-_r product_id=H_H_CH3_CH3_none_Cl_sn2_pc mp2_author_energy=-29302.391748605172 mp2_my_energy=0 hash=59123 address=T id=71 energy=-17370.619637818105 free_energy=-17370.619637818105 cell="(1,0,0), (0,1,0), (0,0,1)" stress="2.9856973482774598e-09 8.844414750312959e-09 2.1610951949735293e-08 8.844414750312959e-09 -1.5685272874341404e-08 -4.42168766839998e-08 2.1610951949735293e-08 -4.42168766839998e-08 -1.9179899007915068e-08" pbc="F F F"
C        0.35524517      -0.83260808      -0.02694533       0.00078773      -0.00143528      -0.00184194