18
Properties=species:S:1:pos:R:3:mp2_forces:R:3:forces:R:3 R1=CH3 R2=NO2 R3=CH3 R4=CN lg=F nu=Cl rxn-id=1997 mp2_energy=-27567.035362938197 energy=-27567.03536547457 free_energy=-27567.03536547457 pbc="F F F"
C        0.63173516      -0.07669152      -0.01063984       0.02724536      -0.05210935       0.05367158       0.02726750      -0.05208840       0.05367474
C        0.91107230       1.42704213       0.06137766       0.02859000      -0.03491651       0.01654699       0.02858302      -0.03491260       0.01652535
H        2.00679607       1.49029448      -0.00489915       0.03926264       0.05991958       0.00544530       0.03925413       0.05992137       0.00544711
F       -0.74804109      -0.27780952      -0.00776604      -0.01677017      -0.00278552       0.01187889      -0.01678144      -0.00279163       0.01187877
Cl       3.96289553       0.22553489       0.48342811       0.01177551       0.07794272      -0.05935694       0.01177676       0.07794317      -0.05935777
C        1.24940584      -0.70228972      -1.24427594       0.00035941      -0.00419430       0.00432747       0.00035850      -0.00419816       0.00433407
H        0.45525386      -0.88692607      -1.96995037      -0.02167744       0.03123132       0.01043085      -0.02167624       0.03123149       0.01043023
H        1.99854445      -0.03701746      -1.66493975       0.02609729      -0.02311320      -0.01090264       0.02609324      -0.02311524      -0.01090058
H        1.74973133      -1.63200550      -0.99148580      -0.05962123      -0.02742777      -0.00993870      -0.05962386      -0.02742197      -0.00993952
N        1.03675166      -0.83355330       1.25972231      -0.00526717      -0.01423330       0.03656052      -0.00527577      -0.01432534       0.03647856
O        0.99718866      -0.22428624       2.32076158      -0.01420884      -0.02853230       0.02656212      -0.01420550      -0.02850023       0.02662291
O        1.21242056      -2.03979590       1.14689302      -0.00707405      -0.02717133      -0.02072891      -0.00707154      -0.02712656      -0.02071561
C        0.42023106       2.23113229       1.27284001      -0.01124985       0.00079259       0.00365516      -0.01125041       0.00079707       0.00365348
H       -0.58359885       1.93002619       1.57566258      -0.02041266      -0.01521465      -0.02063898      -0.02041403      -0.01521485      -0.02063802
H        1.10131766       2.08877994       2.10589695      -0.01184493       0.00535179       0.01104164      -0.01184290       0.00534980       0.01104493
H        0.40056842       3.29032956       1.00669949      -0.00726512       0.01243538      -0.00604812      -0.00726407       0.01243356      -0.00604772
C        0.30045189       1.98582781      -1.14814259      -0.00911727       0.03973340      -0.03572751      -0.00911821       0.03972968      -0.03568874
N       -0.23510886       2.46181748      -2.07929398       0.05117852       0.00229144      -0.01677872       0.05119082       0.00228884      -0.01680218
18
Properties=species:S:1:pos:R:3:mp2_forces:R:3:forces:R:3 R1=CH3 R2=NO2 R3=CH3 R4=CN lg=F nu=Cl rxn-id=1997 mp2_energy=-27567.035362938197 energy=-27567.03950994251 free_energy=-27567.03536547457 pbc="F F F"
C        0.64671779      -0.06930709      -0.01066896       0.02724536      -0.05210935       0.05367158      -0.00988002      -0.00886570       0.00371620
C        0.91525986       1.43891541       0.04702244       0.02859000      -0.03491651       0.01654699      -0.00617517      -0.01035260       0.00550743
H        2.00649764       1.53477463      -0.04356706       0.03926264       0.05991958       0.00544530      -0.00257801      -0.02118032       0.01904234
F       -0.73675182      -0.26551351      -0.01700017      -0.01677017      -0.00278552       0.01187889      -0.00790697      -0.01516870       0.00980377
Cl       3.92651463       0.26604649       0.50013664       0.01177551       0.07794272      -0.05935694       0.03151036       0.05494350      -0.04517858
C        1.26547762      -0.70538068      -1.23854385       0.00035941      -0.00419430       0.00432747      -0.01048353      -0.00546037       0.00216467
H        0.46999029      -0.87036063      -1.96720040      -0.02167744       0.03123132       0.01043085      -0.00313914       0.03407176      -0.01577367
H        2.03528332      -0.05993925      -1.65376916       0.02609729      -0.02311320      -0.01090264       0.01847030      -0.02036795       0.03128925
H        1.73820744      -1.64825663      -0.98242715      -0.05962123      -0.02742777      -0.00993870      -0.04577560      -0.02723062      -0.00842982
N        1.02383840      -0.83538393       1.26525349      -0.00526717      -0.01423330       0.03656052       0.00491684      -0.00408860       0.00295996
O        0.99217040      -0.23779573       2.33284553      -0.01420884      -0.02853230       0.02656212       0.01648529       0.00183233       0.00032743
O        1.15537750      -2.04665544       1.14100536      -0.00707405      -0.02717133      -0.02072891       0.01196149      -0.00395358       0.00803936
C        0.43792655       2.22334605       1.27504100      -0.01124985       0.00079259       0.00365516      -0.01194521      -0.00173608      -0.00147885
H       -0.55598461       1.90200402       1.58942451      -0.02041266      -0.01521465      -0.02063898      -0.01802099       0.00986007      -0.00754585
H        1.13608195       2.07255866       2.09274966      -0.01184493       0.00535179       0.01104164      -0.02030845      -0.00014125       0.00610322
H        0.40296089       3.28621552       1.02531200      -0.00726512       0.01243538      -0.00604812      -0.00043030      -0.00334212      -0.01013222
C        0.27394393       1.98743388      -1.15362959      -0.00911727       0.03973340      -0.03572751       0.01880969      -0.00269227       0.00479547
N       -0.26589613       2.44770777      -2.09009605       0.05117852       0.00229144      -0.01677872       0.03448943       0.02387248      -0.00521012
18
Properties=species:S:1:pos:R:3:mp2_forces:R:3:forces:R:3 R1=CH3 R2=NO2 R3=CH3 R4=CN lg=F nu=Cl rxn-id=1997 mp2_energy=-27567.035362938197 energy=-27567.023992305687 free_energy=-27567.03536547457 pbc="F F F"
C        0.65212502      -0.06490018      -0.01581920       0.02724536      -0.05210935       0.05367158      -0.01533806      -0.01099820       0.00304260
C        0.91611701       1.44490116       0.03970997       0.02859000      -0.03491651       0.01654699      -0.00948088      -0.01339509       0.00644510
H        2.00418688       1.54941570      -0.06618262       0.03926264       0.05991958       0.00544530      -0.00421843      -0.03076868       0.02321452
F       -0.73239788      -0.25844903      -0.03310268      -0.01677017      -0.00278552       0.01187889      -0.01261854      -0.01883218       0.00806794
Cl       3.89853676       0.23610193       0.54465196       0.01177551       0.07794272      -0.05935694       0.03930696       0.05885411      -0.05203415
C        1.27832542      -0.70323116      -1.23947878       0.00035941      -0.00419430       0.00432747      -0.01172965      -0.00595257       0.00261511
H        0.48061432      -0.90395434      -1.95661917      -0.02167744       0.03123132       0.01043085      -0.00309071       0.02391581      -0.01625925
H        2.02396278      -0.04338425      -1.67578248       0.02609729      -0.02311320      -0.01090264       0.01283248      -0.01469451       0.03036862
H        1.78200929      -1.62672958      -0.97266939      -0.05962123      -0.02742777      -0.00993870      -0.03787921      -0.02300230      -0.00362158
N        1.01280825      -0.83442232       1.26223238      -0.00526717      -0.01423330       0.03656052       0.00261323      -0.00487572       0.00230632
O        0.97496221      -0.24023614       2.33127407      -0.01420884      -0.02853230       0.02656212       0.01460600       0.00239195      -0.00078084
O        1.13292625      -2.04659581       1.13501787      -0.00707405      -0.02717133      -0.02072891       0.01528570      -0.00430182       0.00862711
C        0.45358774       2.22465514       1.27612800      -0.01124985       0.00079259       0.00365516      -0.01277673      -0.00158486      -0.00133814
H       -0.53305315       1.89653650       1.60537764      -0.02041266      -0.01521465      -0.02063898      -0.02027416       0.01515323      -0.00580689
H        1.16593687       2.07462855       2.08178802      -0.01184493       0.00535179       0.01104164      -0.02132364      -0.00027873       0.00654118
H        0.40867551       3.28799430       1.02979270      -0.00726512       0.01243538      -0.00604812       0.00295446      -0.00368517      -0.01356829
C        0.25280256       1.98843651      -1.15194124      -0.00911727       0.03973340      -0.03572751       0.02259865      -0.00257731       0.00838959
N       -0.30451020       2.43964257      -2.08248882       0.05117852       0.00229144      -0.01677872       0.03853252       0.03463205      -0.00620894
18
Properties=species:S:1:pos:R:3:mp2_forces:R:3:forces:R:3 R1=CH3 R2=NO2 R3=CH3 R4=CN lg=F nu=Cl rxn-id=1997 mp2_energy=-27567.035362938197 energy=-27567.005917415525 free_energy=-27567.03536547457 pbc="F F F"
C        0.66336864      -0.05837731      -0.01977980       0.02724536      -0.05210935       0.05367158      -0.03010989      -0.01478555       0.00025262
C        0.92064897       1.45392874       0.03206342       0.02859000      -0.03491651       0.01654699      -0.01728943      -0.01993331       0.00756439
H        2.00424480       1.57323508      -0.09088706       0.03926264       0.05991958       0.00544530      -0.00773958      -0.05562362       0.03155909
F       -0.72297723      -0.24724590      -0.04658587      -0.01677017      -0.00278552       0.01187889      -0.02521431      -0.02675068       0.00403422
Cl       3.86162242       0.20051141       0.58793116       0.01177551       0.07794272      -0.05935694       0.06140598       0.06415700      -0.05530960
C        1.29198538      -0.70129019      -1.24034777       0.00035941      -0.00419430       0.00432747      -0.01605936      -0.00542518       0.00288812
H        0.48893668      -0.93339068      -1.94185167      -0.02167744       0.03123132       0.01043085       0.00170453       0.01151321      -0.02374463
H        2.01423905      -0.03165518      -1.70083834       0.02609729      -0.02311320      -0.01090264       0.00519820      -0.00546069       0.03586925
H        1.82204316      -1.60737980      -0.96557709      -0.05962123      -0.02742777      -0.00993870      -0.03175243      -0.01410380       0.00541008
N        1.00458521      -0.83295626       1.26016926      -0.00526717      -0.01423330       0.03656052      -0.00091809      -0.00387894      -0.00054178
O        0.95446999      -0.24446594       2.33163023      -0.01420884      -0.02853230       0.02656212       0.01744147       0.00755472      -0.00508117
O        1.11351286      -2.04570149       1.12818099      -0.00707405      -0.02717133      -0.02072891       0.02390274      -0.00257269       0.00937310
C        0.46871136       2.22584615       1.27702901      -0.01124985       0.00079259       0.00365516      -0.01394016      -0.00154029      -0.00146894
H       -0.51072021       1.88756827       1.61645447      -0.02041266      -0.01521465      -0.02063898      -0.02311300       0.02379324      -0.00065413
H        1.19241086       2.07571335       2.07266845      -0.01184493       0.00535179       0.01104164      -0.02090782      -0.00112606       0.00484160
H        0.41214259       3.29016833       1.03719648      -0.00726512       0.01243538      -0.00604812       0.00865018      -0.00416506      -0.01911756
C        0.23240817       1.98917715      -1.15012468      -0.00911727       0.03973340      -0.03572751       0.02679713      -0.00107420       0.01084863
N       -0.34401707       2.42672378      -2.07544295       0.05117852       0.00229144      -0.01677872       0.04194382       0.04942190      -0.00672329
18
Properties=species:S:1:pos:R:3:mp2_forces:R:3:forces:R:3 R1=CH3 R2=NO2 R3=CH3 R4=CN lg=F nu=Cl rxn-id=1997 mp2_energy=-27567.035362938197 energy=-27566.982934940133 free_energy=-27567.03536547457 pbc="F F F"
C        0.68474856      -0.04832360      -0.01956687       0.02724536      -0.05210935       0.05367158      -0.06117986      -0.02165223      -0.00633852
C        0.93308915       1.46768009       0.02632274       0.02859000      -0.03491651       0.01654699      -0.03401499      -0.03265828       0.00861799
H        2.01084152       1.61124123      -0.11150942       0.03926264       0.05991958       0.00544530      -0.01508842      -0.10774775       0.04653684
F       -0.70494042      -0.22836725      -0.04957252      -0.01677017      -0.00278552       0.01187889      -0.05153015      -0.04289416      -0.00376653
Cl       3.82091587       0.15883200       0.61325972       0.01177551       0.07794272      -0.05935694       0.10215554       0.06989217      -0.05002515
C        1.30330840      -0.69937106      -1.24100805       0.00035941      -0.00419430       0.00432747      -0.02528454      -0.00324027       0.00225031
H        0.48713675      -0.94286121      -1.92319393      -0.02167744       0.03123132       0.01043085       0.01492008      -0.00272737      -0.04711329
H        2.01224980      -0.03165243      -1.72494489       0.02609729      -0.02311320      -0.01090264      -0.00296429       0.01037784       0.05427071
H        1.84235861      -1.60012535      -0.96651378      -0.05962123      -0.02742777      -0.00993870      -0.02936379       0.00006953       0.02085945
N        1.00493591      -0.83058146       1.26129289      -0.00526717      -0.01423330       0.03656052      -0.00508132       0.00053659      -0.00695496
O        0.93405872      -0.25093639       2.33632744      -0.01420884      -0.02853230       0.02656212       0.03335469       0.02188660      -0.01504972
O        1.10448814      -2.04334057       1.12227613      -0.00707405      -0.02717133      -0.02072891       0.04084433       0.00256023       0.01186498
C        0.47717547       2.22659903       1.27748217      -0.01124985       0.00079259       0.00365516      -0.01596807      -0.00102647      -0.00202172
H       -0.49754374       1.87212916       1.61272603      -0.02041266      -0.01521465      -0.02063898      -0.02690552       0.03811885       0.01223431
H        1.20218434       2.07538072       2.07188958      -0.01184493       0.00535179       0.01104164      -0.01649362      -0.00183029      -0.00188141
H        0.40717120       3.29254881       1.04864448      -0.00726512       0.01243538      -0.00604812       0.01743076      -0.00382021      -0.02695689
C        0.22042772       1.98837440      -1.14918960      -0.00911727       0.03973340      -0.03572751       0.03059671       0.00237574       0.01109615
N       -0.37499037       2.40318343      -2.07283389       0.05117852       0.00229144      -0.01677872       0.04457247       0.07177950      -0.00762256
18
Properties=species:S:1:pos:R:3:mp2_forces:R:3:forces:R:3 R1=CH3 R2=NO2 R3=CH3 R4=CN lg=F nu=Cl rxn-id=1997 mp2_energy=-27567.035362938197 energy=-27566.956661352466 free_energy=-27567.03536547457 pbc="F F F"
C        0.70644236      -0.03792307      -0.01650912       0.02724536      -0.05210935       0.05367158      -0.09436020      -0.03013146      -0.01391542
C        0.94905541       1.48121896       0.02349680       0.02859000      -0.03491651       0.01654699      -0.05518881      -0.04680453       0.00964162
H        2.02170450       1.64827974      -0.12258340       0.03926264       0.05991958       0.00544530      -0.02461394      -0.16393133       0.06007580
F       -0.68702094      -0.20646631      -0.04469703      -0.01677017      -0.00278552       0.01187889      -0.07869676      -0.06491962      -0.01244881
Cl       3.79371232       0.13579942       0.62065475       0.01177551       0.07794272      -0.05935694       0.14228986       0.06882365      -0.04014755
C        1.30888951      -0.69746499      -1.24104720       0.00035941      -0.00419430       0.00432747      -0.03472190      -0.00157177       0.00001879
H        0.47791430      -0.93308862      -1.90783324      -0.02167744       0.03123132       0.01043085       0.02983255      -0.01565816      -0.07760177
H        2.01699492      -0.03967659      -1.73994290       0.02609729      -0.02311320      -0.01090264      -0.00768822       0.02579159       0.07509882
H        1.84021014      -1.60446629      -0.97215311      -0.05962123      -0.02742777      -0.00993870      -0.02846302       0.01294077       0.03480089
N        1.00874696      -0.82919057       1.26367438      -0.00526717      -0.01423330       0.03656052      -0.00624545       0.00604180      -0.01285314
O        0.92273641      -0.25862578       2.34247491      -0.01420884      -0.02853230       0.02656212       0.05574921       0.03981626      -0.02507692
O        1.09671587      -2.04199704       1.11673518      -0.00707405      -0.02717133      -0.02072891       0.06069995       0.00746395       0.01848930
C        0.47988434       2.22607238       1.27770003      -0.01124985       0.00079259       0.00365516      -0.01973553       0.00064898      -0.00206606
H       -0.49194060       1.85337565       1.60010279      -0.02041266      -0.01521465      -0.02063898      -0.03252478       0.05618203       0.03026579
H        1.19980176       2.07402628       2.07672165      -0.01184493       0.00535179       0.01104164      -0.01089624      -0.00112232      -0.01095267
H        0.39659368       3.29342128       1.06041371      -0.00726512       0.01243538      -0.00604812       0.02542541      -0.00161615      -0.03382078
C        0.21915734       1.98533320      -1.14987852      -0.00911727       0.03973340      -0.03572751       0.03038517       0.00762056       0.01104611
N       -0.39198263       2.37178190      -2.07544144       0.05117852       0.00229144      -0.01677872       0.04875271       0.10042575      -0.01055400
18
Properties=species:S:1:pos:R:3:mp2_forces:R:3:forces:R:3 R1=CH3 R2=NO2 R3=CH3 R4=CN lg=F nu=Cl rxn-id=1997 mp2_energy=-27567.035362938197 energy=-27566.920560891213 free_energy=-27567.03536547457 pbc="F F F"
C        0.72647613      -0.02974429      -0.01462243       0.02724536      -0.05210935       0.05367158      -0.13082729      -0.03561431      -0.02341811
C        0.96163496       1.49276179       0.01954715       0.02859000      -0.03491651       0.01654699      -0.07425997      -0.05756783       0.00898315
H        2.02764296       1.68499035      -0.13834368       0.03926264       0.05991958       0.00544530      -0.02603029      -0.22331455       0.07184398
F       -0.67059251      -0.18872910      -0.04526138      -0.01677017      -0.00278552       0.01187889      -0.10699608      -0.08324591      -0.02319773
Cl       3.75882504       0.12623060       0.63742391       0.01177551       0.07794272      -0.05935694       0.19742255       0.06320050      -0.02778405
C        1.31765019      -0.69630251      -1.24079254       0.00035941      -0.00419430       0.00432747      -0.04740474      -0.00062220      -0.00237667
H        0.47396223      -0.93079973      -1.89149629      -0.02167744       0.03123132       0.01043085       0.04077626      -0.03460571      -0.11124956
H        2.01938382      -0.04427555      -1.75652880       0.02609729      -0.02311320      -0.01090264      -0.01191448       0.04018935       0.09781305
H        1.84769209      -1.60550759      -0.97657094      -0.05962123      -0.02742777      -0.00993870      -0.02827835       0.02739358       0.05323391
N        1.00693480      -0.83027868       1.26515475      -0.00526717      -0.01423330       0.03656052      -0.00687977       0.01314381      -0.01937381
O        0.91117924      -0.26798600       2.34736570      -0.01420884      -0.02853230       0.02656212       0.07509905       0.05518931      -0.03268603
O        1.07554494      -2.04356588       1.10988860      -0.00707405      -0.02717133      -0.02072891       0.08448139       0.01338517       0.02312854
C        0.48773559       2.22514557       1.27853198      -0.01124985       0.00079259       0.00365516      -0.02407543       0.00331625      -0.00211179
H       -0.47890078       1.83674423       1.59668967      -0.02041266      -0.01521465      -0.02063898      -0.03936119       0.07249506       0.04436353
H        1.20913331       2.07340228       2.07651087      -0.01184493       0.00535179       0.01104164      -0.00808831      -0.00144601      -0.01843862
H        0.39152056       3.29308740       1.06989846      -0.00726512       0.01243538      -0.00604812       0.02891758       0.00271643      -0.03353533
C        0.21274573       1.98127312      -1.14942053      -0.00911727       0.03973340      -0.03572751       0.03033798       0.02082005       0.00924372
N       -0.41095266       2.34396352      -2.07608627       0.05117852       0.00229144      -0.01677872       0.04708110       0.12456701      -0.01443821
18
Properties=species:S:1:pos:R:3:mp2_forces:R:3:forces:R:3 R1=CH3 R2=NO2 R3=CH3 R4=CN lg=F nu=Cl rxn-id=1997 mp2_energy=-27567.035362938197 energy=-27566.84959272993 free_energy=-27567.03536547457 pbc="F F F"
C        0.76000619      -0.02313981      -0.00930379       0.02724536      -0.05210935       0.05367158      -0.21013359      -0.03454125      -0.04445429
C        0.97585698       1.50574280       0.01623399       0.02859000      -0.03491651       0.01654699      -0.09622485      -0.06598272       0.00277153
H        2.02846068       1.74364562      -0.16107609       0.03926264       0.05991958       0.00544530      -0.00697506      -0.33077320       0.09596962
F       -0.64278939      -0.17375809      -0.04296734      -0.01677017      -0.00278552       0.01187889      -0.16140067      -0.09497668      -0.05067528
Cl       3.70044940       0.11217163       0.64814922       0.01177551       0.07794272      -0.05935694       0.31353761       0.05588423       0.00506733
C        1.33303199      -0.69758084      -1.24053349       0.00035941      -0.00419430       0.00432747      -0.07940609       0.00476045      -0.00344855
H        0.46743330      -0.92620899      -1.86328521      -0.02167744       0.03123132       0.01043085       0.05630916      -0.07430717      -0.18064520
H        2.02293909      -0.05391252      -1.78329275       0.02609729      -0.02311320      -0.01090264      -0.02197111       0.06620000       0.14598232
H        1.86139304      -1.61233534      -0.99067247      -0.05962123      -0.02742777      -0.00993870      -0.03888037       0.05845305       0.10168985
N        1.00696759      -0.83471457       1.27073265      -0.00526717      -0.01423330       0.03656052      -0.00862682       0.02811695      -0.03290861
O        0.89028321      -0.28148975       2.35552472      -0.01420884      -0.02853230       0.02656212       0.11217019       0.07255787      -0.04022299
O        1.05051147      -2.04831445       1.10619931      -0.00707405      -0.02717133      -0.02072891       0.12856817       0.02646251       0.02165352
C        0.49574561       2.22445580       1.27981196      -0.01124985       0.00079259       0.00365516      -0.02702088       0.00806489      -0.00407961
H       -0.46636378       1.82208400       1.59282508      -0.02041266      -0.01521465      -0.02063898      -0.04354402       0.08510071       0.05598197
H        1.21759158       2.07451940       2.07805347      -0.01184493       0.00535179       0.01104164      -0.00419932      -0.00736440      -0.02886505
H        0.38857405       3.29232340       1.07636360      -0.00726512       0.01243538      -0.00604812       0.02593438       0.01129858      -0.01957325
C        0.20218203       1.97378825      -1.14574259      -0.00911727       0.03973340      -0.03572751       0.04003512       0.05978624      -0.00186967
N       -0.42465740       2.32313298      -2.07513205       0.05117852       0.00229144      -0.01677872       0.02182816       0.13125996      -0.02237366
18
Properties=species:S:1:pos:R:3:mp2_forces:R:3:forces:R:3 R1=CH3 R2=NO2 R3=CH3 R4=CN lg=F nu=Cl rxn-id=1997 mp2_energy=-27567.035362938197 energy=-27566.731788375666 free_energy=-27567.03536547457 pbc="F F F"
C        0.80367246      -0.01671150       0.00031545       0.02724536      -0.05210935       0.05367158      -0.36839699      -0.03505014      -0.07811810
C        0.99454744       1.51909440       0.01574386       0.02859000      -0.03491651       0.01654699      -0.12154691      -0.06979629      -0.00684098
H        2.02937969       1.81169878      -0.17950483       0.03926264       0.05991958       0.00544530       0.02765932      -0.44720412       0.12266112
F       -0.60889898      -0.15618638      -0.03047761      -0.01677017      -0.00278552       0.01187889      -0.20713137      -0.11470060      -0.10117646
Cl       3.64170213       0.09711170       0.64248412       0.01177551       0.07794272      -0.05935694       0.48033888       0.04775654       0.05937196
C        1.34826557      -0.69947918      -1.24010151       0.00035941      -0.00419430       0.00432747      -0.13092770       0.01285270      -0.00150293
H        0.45357696      -0.90718074      -1.82676953      -0.02167744       0.03123132       0.01043085       0.07434507      -0.13349342      -0.29484281
H        2.02966054      -0.07059399      -1.81191562       0.02609729      -0.02311320      -0.01090264      -0.04066912       0.09905520       0.20894623
H        1.86475944      -1.62785749      -1.01327682      -0.05962123      -0.02742777      -0.00993870      -0.05863102       0.09760638       0.16321067
N        1.01143852      -0.84027779       1.27829176      -0.00526717      -0.01423330       0.03656052       0.00236799       0.04340784      -0.03887757
O        0.86768145      -0.29545469       2.36411955      -0.01420884      -0.02853230       0.02656212       0.16610277       0.07981332      -0.03125739
O        1.03049719      -2.05342883       1.10372416      -0.00707405      -0.02717133      -0.02072891       0.18217840       0.03503004       0.03190057
C        0.49833748       2.22316555       1.28028369      -0.01124985       0.00079259       0.00365516      -0.02849609       0.01694088      -0.00549963
H       -0.46189103       1.80670479       1.57873210      -0.02041266      -0.01521465      -0.02063898      -0.04423187       0.09778997       0.07185978
H        1.21325509       2.07616969       2.08553744      -0.01184493       0.00535179       0.01104164       0.00193536      -0.01537381      -0.03965825
H        0.38222895       3.29061387       1.08012150      -0.00726512       0.01243538      -0.00604812       0.01865562       0.02382511      -0.00136046
C        0.19702368       1.96060468      -1.14107340      -0.00911727       0.03973340      -0.03572751       0.06312435       0.13738388      -0.01928932
N       -0.42762092       2.30241666      -2.07434605       0.05117852       0.00229144      -0.01677872      -0.01667668       0.12415651      -0.03952641
18
Properties=species:S:1:pos:R:3:mp2_forces:R:3:forces:R:3 R1=CH3 R2=NO2 R3=CH3 R4=CN lg=F nu=Cl rxn-id=1997 mp2_energy=-27567.035362938197 energy=-27566.539876697087 free_energy=-27567.03536547457 pbc="F F F"
C        0.85918566      -0.01022261       0.01141908       0.02724536      -0.05210935       0.05367158      -0.82400789      -0.05680252      -0.14290772
C        1.01346781       1.53058250       0.01538682       0.02859000      -0.03491651       0.01654699      -0.13828059      -0.05858665      -0.01925938
H        2.02639898       1.87862701      -0.19926085       0.03926264       0.05991958       0.00544530       0.07632161      -0.52391671       0.13286767
F       -0.57801116      -0.13656734      -0.01610070      -0.01677017      -0.00278552       0.01187889      -0.07668523      -0.13765758      -0.18094018
Cl       3.56844309       0.09014104       0.63834975       0.01177551       0.07794272      -0.05935694       0.74290795       0.03899189       0.14507085
C        1.36850513      -0.70078481      -1.23964387       0.00035941      -0.00419430       0.00432747      -0.20341611       0.02079062       0.01231078
H        0.44314261      -0.88761120      -1.78184118      -0.02167744       0.03123132       0.01043085       0.08316937      -0.21136066      -0.44396403
H        2.03615807      -0.08514044      -1.84358715       0.02609729      -0.02311320      -0.01090264      -0.06636076       0.12391577       0.27378945
H        1.87436206      -1.64127845      -1.03602968      -0.05962123      -0.02742777      -0.00993870      -0.07663829       0.13139660       0.21418950
N        1.00996424      -0.84623438       1.28284228      -0.00526717      -0.01423330       0.03656052       0.06582341       0.04833831      -0.01689438
O        0.84200888      -0.30736117       2.36780176      -0.01420884      -0.02853230       0.02656212       0.20986476       0.05658557       0.01221328
O        1.00056920      -2.05799917       1.09676925      -0.00707405      -0.02717133      -0.02072891       0.22877459       0.02717222       0.06408903
C        0.50417402       2.22022172       1.28085505      -0.01124985       0.00079259       0.00365516      -0.02766595       0.03346037      -0.00521380
H       -0.45262909       1.78972403       1.56820139      -0.02041266      -0.01521465      -0.02063898      -0.04236192       0.11096636       0.08621665
H        1.21554145       2.07810989       2.09031653      -0.01184493       0.00535179       0.01104164       0.00565391      -0.02202105      -0.04400135
H        0.37896340       3.28662380       1.08161161      -0.00726512       0.01243538      -0.00604812       0.00528073       0.04119504       0.01982787