17
Properties=species:S:1:pos:R:3:mp2_forces:R:3:forces:R:3 R1=CH3 R2=CN R3=CN R4=CH3 lg=Br nu=Br rxn-id=2077 mp2_energy=-149320.00869438876 energy=-149320.00869715877 free_energy=-149320.00869715877 pbc="F F F"
C        0.62714641      -0.09933188       0.01817224      -0.00399222       0.02945845      -0.03855861      -0.00398196       0.02940783      -0.03849198
C        1.14435812       1.35397852      -0.01714954      -0.01579362       0.00707883      -0.01690276      -0.01581545       0.00704079      -0.01686931
H        2.24942181       1.25092003      -0.01633963      -0.00493294      -0.02113249       0.03487407      -0.00491491      -0.02112756       0.03486500
Br      -1.36469849      -0.11365513       0.09198384      -0.06346076      -0.00693888       0.01864872      -0.06343494      -0.00691613       0.01861349
Br       4.44675012       0.47261816      -0.65528038      -0.00417006       0.03680446      -0.07505321      -0.00417281       0.03680416      -0.07505307
C        1.06527931      -0.89878847      -1.20350819       0.01704065      -0.01244376       0.00369127       0.01702998      -0.01244549       0.00371535
H        0.58655390      -0.52157058      -2.10871056      -0.01872247       0.06368392       0.07126210      -0.01873350       0.06369071       0.07123098
H        2.15218334      -0.79831143      -1.29591611       0.02228813      -0.03328369       0.04009575       0.02229370      -0.03328074       0.04009144
H        0.78429472      -1.94576477      -1.08083274       0.03765652      -0.02021235       0.01211586       0.03765744      -0.02021105       0.01211202
C        1.05179136      -0.75848598       1.25459506      -0.03378372       0.05538031      -0.00732303      -0.03370368       0.05525351      -0.00715038
N        1.35523168      -1.29924975       2.25398704       0.01198353      -0.00154662      -0.04968738       0.01190318      -0.00140167      -0.04987800
C        0.73144111       2.09619074       1.17152370      -0.01201565      -0.02502045       0.00986393      -0.01209284      -0.02483408       0.01005796
N        0.39485319       2.74462385       2.09198513      -0.00094380      -0.01414407       0.01584500      -0.00087619      -0.01431007       0.01565041
C        0.74218124       2.11983846      -1.27829969       0.00548299       0.01519240      -0.03982803       0.00547856       0.01519688      -0.03982025
H        1.24072131       1.69828322      -2.14960706       0.03240281      -0.07798841      -0.01395438       0.03241985      -0.07800187      -0.01398402
H       -0.34000262       2.10634736      -1.41786339      -0.02337322      -0.00850107      -0.04312729      -0.02339658      -0.00850110      -0.04312989
H        1.06310459       3.15909542      -1.19807213       0.05433392       0.01361342       0.07803799       0.05434025       0.01363588       0.07804022
17
Properties=species:S:1:pos:R:3:mp2_forces:R:3:forces:R:3 R1=CH3 R2=CN R3=CN R4=CH3 lg=Br nu=Br rxn-id=2077 mp2_energy=-149320.00869438876 energy=-149320.0212594357 free_energy=-149320.00869715877 pbc="F F F"
C        0.61813961      -0.08990583       0.02599368      -0.00399222       0.02945845      -0.03855861      -0.00792199      -0.00408676       0.00491600
C        1.12946475       1.36397799      -0.00363286      -0.01579362       0.00707883      -0.01690276      -0.00288468      -0.00549656       0.00581832
H        2.23320687       1.26051665       0.03097026      -0.00493294      -0.02113249       0.03487407      -0.00312400      -0.00667681       0.00901018
Br      -1.37449552      -0.12017839       0.12886601      -0.06346076      -0.00693888       0.01864872      -0.00695727       0.00083934      -0.00701920
Br       4.41291218       0.38535125      -0.67105760      -0.00417006       0.03680446      -0.07505321       0.00466860       0.06274741      -0.06538021
C        1.05042653      -0.87254372      -1.20731224       0.01704065      -0.01244376       0.00369127      -0.00143075      -0.00705212       0.00927329
H        0.49958874      -0.52939517      -2.08395858      -0.01872247       0.06368392       0.07126210       0.02816054       0.01565172      -0.00177515
H        2.12594555      -0.70857437      -1.34458123       0.02228813      -0.03328369       0.04009575       0.00636973      -0.03095670       0.03272705
H        0.85299485      -1.93568397      -1.06415175       0.03765652      -0.02021235       0.01211586      -0.03579024      -0.00322052      -0.00266222
C        1.07065241      -0.75241418       1.24805757      -0.03378372       0.05538031      -0.00732303      -0.01310909      -0.00348507       0.00171111
N        1.41650514      -1.30989886       2.22344220       0.01198353      -0.00154662      -0.04968738       0.00056169      -0.00929040       0.00256802
C        0.69036692       2.10726565       1.17536038      -0.01201565      -0.02502045       0.00986393      -0.00775488      -0.00135923       0.00117701
N        0.34895006       2.74795790       2.09952676      -0.00094380      -0.01414407       0.01584500      -0.01219257       0.00496097      -0.00450455
C        0.77016608       2.11078922      -1.28900864       0.00548299       0.01519240      -0.03982803       0.00953831      -0.00382500       0.00340214
H        1.32370495       1.68324417      -2.12542552       0.03240281      -0.07798841      -0.01395438       0.00756047      -0.01194336       0.00633427
H       -0.30369281       2.06913596      -1.48729747      -0.02337322      -0.00850107      -0.04312729       0.00920537       0.01130934       0.00077983
H        1.06577478       3.15709347      -1.19512341       0.05433392       0.01361342       0.07803799       0.02510078      -0.00811627       0.00362413
17
Properties=species:S:1:pos:R:3:mp2_forces:R:3:forces:R:3 R1=CH3 R2=CN R3=CN R4=CH3 lg=Br nu=Br rxn-id=2077 mp2_energy=-149320.00869438876 energy=-149319.99714133202 free_energy=-149320.00869715877 pbc="F F F"
C        0.62994544      -0.08467316       0.02245466      -0.00399222       0.02945845      -0.03855861      -0.01141894      -0.00595121       0.00638290
C        1.13193040       1.37255177      -0.00834957      -0.01579362       0.00707883      -0.01690276      -0.00499802      -0.00760994       0.00579475
H        2.23558791       1.27210975       0.02766856      -0.00493294      -0.02113249       0.03487407      -0.00522732      -0.01032255       0.00794081
Br      -1.36240499      -0.12487915       0.14910460      -0.06346076      -0.00693888       0.01864872      -0.00914508      -0.00111958      -0.00865456
Br       4.39994921       0.28727609      -0.58286112      -0.00417006       0.03680446      -0.07505321       0.01607775       0.07795942      -0.07278875
C        1.04816184      -0.86025870      -1.22102163       0.01704065      -0.01244376       0.00369127      -0.00182811      -0.00856264       0.01179500
H        0.45320631      -0.54622459      -2.07953472      -0.01872247       0.06368392       0.07126210       0.04122999       0.02873751      -0.00648457
H        2.11239065      -0.66362607      -1.39388971       0.02228813      -0.03328369       0.04009575       0.01277702      -0.04368605       0.04988511
H        0.89855901      -1.92897661      -1.06286869       0.03765652      -0.02021235       0.01211586      -0.05479105      -0.00508621      -0.00599839
C        1.09533074      -0.74720875       1.23959518      -0.03378372       0.05538031      -0.00732303      -0.01774584      -0.00251002      -0.00170545
N        1.43462259      -1.30451669       2.21733407       0.01198353      -0.00154662      -0.04968738       0.00634929      -0.01261820       0.00415376
C        0.69132589       2.11271207       1.17214476      -0.01201565      -0.02502045       0.00986393      -0.00795730      -0.00167619       0.00046152
N        0.34886785       2.75023843       2.09811987      -0.00094380      -0.01414407       0.01584500      -0.01053237       0.00779894      -0.00635929
C        0.76252541       2.11497672      -1.29364415       0.00548299       0.01519240      -0.03982803       0.00819510      -0.00490520       0.00355570
H        1.32739758       1.70023426      -2.12915154       0.03240281      -0.07798841      -0.01395438       0.00312816      -0.01552244       0.00549654
H       -0.30919511       2.04885572      -1.49679804      -0.02337322      -0.00850107      -0.04312729       0.00680627       0.01527766       0.00298149
H        1.03241037       3.16814668      -1.19763494       0.05433392       0.01361342       0.07803799       0.02908044      -0.01020330       0.00354343
17
Properties=species:S:1:pos:R:3:mp2_forces:R:3:forces:R:3 R1=CH3 R2=CN R3=CN R4=CH3 lg=Br nu=Br rxn-id=2077 mp2_energy=-149320.00869438876 energy=-149319.96607569038 free_energy=-149320.00869715877 pbc="F F F"
C        0.64511432      -0.07894957       0.01755602      -0.00399222       0.02945845      -0.03855861      -0.01755173      -0.00851471       0.00812720
C        1.13623806       1.38218141      -0.01427006      -0.01579362       0.00707883      -0.01690276      -0.00864496      -0.01088801       0.00544913
H        2.23984604       1.28664107       0.02197989      -0.00493294      -0.02113249       0.03487407      -0.00895360      -0.01776663       0.00624122
Br      -1.34723141      -0.12872729       0.16597739      -0.06346076      -0.00693888       0.01864872      -0.01339767      -0.00420084      -0.00994993
Br       4.37870121       0.18660020      -0.49283994      -0.00417006       0.03680446      -0.07505321       0.03049699       0.09063328      -0.07668192
C        1.04850004      -0.84982763      -1.23507913       0.01704065      -0.01244376       0.00369127      -0.00294875      -0.00894781       0.01416956
H        0.40947363      -0.56945765      -2.07326062      -0.01872247       0.06368392       0.07126210       0.05172616       0.04238945      -0.01276511
H        2.09811616      -0.62123758      -1.44707386       0.02228813      -0.03328369       0.04009575       0.01987324      -0.05105085       0.06892455
H        0.94936018      -1.92185296      -1.06078188       0.03765652      -0.02021235       0.01211586      -0.07091133      -0.00763608      -0.00890777
C        1.12052914      -0.74042066       1.23139115      -0.03378372       0.05538031      -0.00732303      -0.02371344      -0.00115305      -0.00657881
N        1.44698468      -1.29661962       2.21407756       0.01198353      -0.00154662      -0.04968738       0.01605186      -0.01580942       0.00539162
C        0.69363168       2.11682491       1.16914930      -0.01201565      -0.02502045       0.00986393      -0.00765225      -0.00185801      -0.00060984
N        0.34836224       2.74815738       2.09832878      -0.00094380      -0.01414407       0.01584500      -0.00647064       0.01253359      -0.00901596
C        0.75362883       2.12130694      -1.29777121       0.00548299       0.01519240      -0.03982803       0.00637466      -0.00622833       0.00344686
H        1.32347998       1.71740844      -2.13537368       0.03240281      -0.07798841      -0.01395438      -0.00108177      -0.01857395       0.00442375
H       -0.31673020       2.03502295      -1.50020777      -0.02337322      -0.00850107      -0.04312729       0.00395864       0.01967500       0.00365399
H        1.00260652       3.17968744      -1.20113435       0.05433392       0.01361342       0.07803799       0.03284458      -0.01260363       0.00468146
17
Properties=species:S:1:pos:R:3:mp2_forces:R:3:forces:R:3 R1=CH3 R2=CN R3=CN R4=CH3 lg=Br nu=Br rxn-id=2077 mp2_energy=-149320.00869438876 energy=-149319.9304404291 free_energy=-149320.00869715877 pbc="F F F"
C        0.66426447      -0.07278132       0.01204029      -0.00399222       0.02945845      -0.03855861      -0.02761984      -0.01182447       0.01006855
C        1.14266470       1.39295303      -0.02087558      -0.01579362       0.00707883      -0.01690276      -0.01427497      -0.01564519       0.00482772
H        2.24626631       1.30547956       0.01501999      -0.00493294      -0.02113249       0.03487407      -0.01465518      -0.03109359       0.00383868
Br      -1.32836715      -0.13162428       0.18126609      -0.06346076      -0.00693888       0.01864872      -0.02136020      -0.00898219      -0.01116172
Br       4.34979377       0.08787255      -0.40245800      -0.00417006       0.03680446      -0.07505321       0.04758900       0.09879630      -0.07714032
C        1.05069053      -0.84081921      -1.24927229       0.01704065      -0.01244376       0.00369127      -0.00483317      -0.00820737       0.01638490
H        0.37113773      -0.59228165      -2.06523576      -0.01872247       0.06368392       0.07126210       0.05845358       0.05243332      -0.02062065
H        2.08377298      -0.58586326      -1.50171686       0.02228813      -0.03328369       0.04009575       0.02665951      -0.05034347       0.08861256
H        0.99713062      -1.91366065      -1.06083196       0.03765652      -0.02021235       0.01211586      -0.07977309      -0.01018917      -0.01008182
C        1.14758484      -0.73255061       1.22378055      -0.03378372       0.05538031      -0.00732303      -0.03145643       0.00070661      -0.01330313
N        1.45544372      -1.28680642       2.21352990       0.01198353      -0.00154662      -0.04968738       0.02992845      -0.01879509       0.00599872
C        0.69619623       2.11968826       1.16635310      -0.01201565      -0.02502045       0.00986393      -0.00651093      -0.00156757      -0.00203857
N        0.34518844       2.74091272       2.10020126      -0.00094380      -0.01414407       0.01584500       0.00063161       0.02064048      -0.01301155
C        0.74420541       2.12823835      -1.30183046       0.00548299       0.01519240      -0.03982803       0.00427087      -0.00709574       0.00343506
H        1.31353017       1.73201381      -2.14356476       0.03240281      -0.07798841      -0.01395438      -0.00423376      -0.01940306       0.00357938
H       -0.32566919       2.02533495      -1.49839930      -0.02337322      -0.00850107      -0.04312729       0.00098497       0.02513416       0.00230127
H        0.97677754       3.19063194      -1.20733864       0.05433392       0.01361342       0.07803799       0.03619959      -0.01456397       0.00831093
17
Properties=species:S:1:pos:R:3:mp2_forces:R:3:forces:R:3 R1=CH3 R2=CN R3=CN R4=CH3 lg=Br nu=Br rxn-id=2077 mp2_energy=-149320.00869438876 energy=-149319.8897799565 free_energy=-149320.00869715877 pbc="F F F"
C        0.68764822      -0.06604656       0.00671092      -0.00399222       0.02945845      -0.03855861      -0.04292307      -0.01553568       0.01231518
C        1.15090163       1.40519352      -0.02695469      -0.01579362       0.00707883      -0.01690276      -0.02160575      -0.02221491       0.00367434
H        2.25440438       1.33039521       0.00936120      -0.00493294      -0.02113249       0.03487407      -0.02166361      -0.05416349      -0.00009355
Br      -1.30569876      -0.13343532       0.19672828      -0.06346076      -0.00693888       0.01864872      -0.03394740      -0.01561356      -0.01085243
Br       4.31038142      -0.00784480      -0.31357588      -0.00417006       0.03680446      -0.07505321       0.07273462       0.10240799      -0.07550969
C        1.05367901      -0.83237211      -1.26364675       0.01704065      -0.01244376       0.00369127      -0.00796675      -0.00588975       0.01873701
H        0.33479843      -0.61371439      -2.05392769      -0.01872247       0.06368392       0.07126210       0.06194389       0.05801941      -0.03195641
H        2.06749932      -0.55527354      -1.56024186       0.02228813      -0.03328369       0.04009575       0.03394264      -0.04086409       0.11030931
H        1.04206648      -1.90426582      -1.06326512       0.03765652      -0.02021235       0.01211586      -0.08225292      -0.01176310      -0.00894449
C        1.17731749      -0.72468551       1.21674442      -0.03378372       0.05538031      -0.00732303      -0.04064064       0.00301653      -0.02073472
N        1.46104820      -1.27776591       2.21439877       0.01198353      -0.00154662      -0.04968738       0.04655534      -0.02047267       0.00635149
C        0.69771656       2.12235947       1.16406460      -0.01201565      -0.02502045       0.00986393      -0.00393903      -0.00082164      -0.00401800
N        0.33927262       2.73066496       2.10360679      -0.00094380      -0.01414407       0.01584500       0.00843626       0.03113852      -0.01882174
C        0.73596719       2.13441480      -1.30610060       0.00548299       0.01519240      -0.03982803       0.00189311      -0.00696995       0.00356563
H        1.30422062       1.74391962      -2.15132080       0.03240281      -0.07798841      -0.01395438      -0.00720990      -0.01742106       0.00237398
H       -0.33324300       2.01460253      -1.49581905      -0.02337322      -0.00850107      -0.04312729      -0.00253028       0.03237958      -0.00046878
H        0.95263130       3.20059162      -1.21609494       0.05433392       0.01361342       0.07803799       0.03917348      -0.01523213       0.01407287
17
Properties=species:S:1:pos:R:3:mp2_forces:R:3:forces:R:3 R1=CH3 R2=CN R3=CN R4=CH3 lg=Br nu=Br rxn-id=2077 mp2_energy=-149320.00869438876 energy=-149319.8259462465 free_energy=-149320.00869715877 pbc="F F F"
C        0.72520837      -0.05640961       0.00013411      -0.00399222       0.02945845      -0.03855861      -0.07533273      -0.01973288       0.01595380
C        1.16454988       1.42371015      -0.03231774      -0.01579362       0.00707883      -0.01690276      -0.03439705      -0.03402398       0.00037343
H        2.26751375       1.37612249       0.00680011      -0.00493294      -0.02113249       0.03487407      -0.03162055      -0.11123011      -0.00974690
Br      -1.27113264      -0.13292164       0.21403917      -0.06346076      -0.00693888       0.01864872      -0.05424364      -0.02497690      -0.00461151
Br       4.24370157      -0.12329336      -0.21231244      -0.00417006       0.03680446      -0.07505321       0.12211313       0.09992096      -0.07169346
C        1.05961672      -0.82371930      -1.28181647       0.01704065      -0.01244376       0.00369127      -0.01578745       0.00094233       0.02320760
H        0.28891347      -0.64394150      -2.03180077      -0.01872247       0.06368392       0.07126210       0.06431357       0.05784253      -0.05476928
H        2.04242976      -0.52314900      -1.64480577       0.02228813      -0.03328369       0.04009575       0.04354499      -0.01119715       0.14796547
H        1.09952656      -1.89205836      -1.06682974       0.03765652      -0.02021235       0.01211586      -0.07719756      -0.00797866      -0.00507941
C        1.21720565      -0.71595765       1.20915409      -0.03378372       0.05538031      -0.00732303      -0.05381299       0.00648890      -0.02780314
N        1.45707996      -1.27093884       2.21752635       0.01198353      -0.00154662      -0.04968738       0.07347302      -0.01851992       0.00628848
C        0.69724951       2.12631037       1.16283334      -0.01201565      -0.02502045       0.00986393       0.00243589       0.00198577      -0.00780240
N        0.32918943       2.71683943       2.11001977      -0.00094380      -0.01414407       0.01584500       0.01481265       0.04400448      -0.02780311
C        0.72839058       2.14112656      -1.31072164       0.00548299       0.01519240      -0.03982803      -0.00147033      -0.00481576       0.00261708
H        1.29823107       1.75692254      -2.15783693       0.03240281      -0.07798841      -0.01395438      -0.01119191      -0.01097149      -0.00083088
H       -0.33871245       1.99570672      -1.49268195      -0.02337322      -0.00850107      -0.04312729      -0.00828638       0.04558711      -0.00834327
H        0.92164991       3.21238878      -1.22871591       0.05433392       0.01361342       0.07803799       0.04264731      -0.01332525       0.02207750
17
Properties=species:S:1:pos:R:3:mp2_forces:R:3:forces:R:3 R1=CH3 R2=CN R3=CN R4=CH3 lg=Br nu=Br rxn-id=2077 mp2_energy=-149320.00869438876 energy=-149319.691149659 free_energy=-149320.00869715877 pbc="F F F"
C        0.80064171      -0.04178960      -0.00913151      -0.00399222       0.02945845      -0.03855861      -0.19049719      -0.01977485       0.02322257
C        1.19551819       1.45513311      -0.03488143      -0.01579362       0.00707883      -0.01690276      -0.07404860      -0.05395398      -0.00563983
H        2.29526907       1.48121429       0.01154779      -0.00493294      -0.02113249       0.03487407      -0.05218263      -0.27735803      -0.02988096
Br      -1.21205181      -0.12080843       0.22608303      -0.06346076      -0.00693888       0.01864872      -0.05087001      -0.04555268       0.01955564
Br       4.12608976      -0.25236016      -0.10838845      -0.00417006       0.03680446      -0.07505321       0.25004940       0.07143582      -0.06145017
C        1.07584251      -0.81904987      -1.30605997       0.01704065      -0.01244376       0.00369127      -0.04617106       0.02029756       0.03421298
H        0.23494713      -0.67679553      -1.98436367      -0.01872247       0.06368392       0.07126210       0.06667021       0.02390253      -0.12532998
H        2.00704281      -0.51150998      -1.77730721       0.02228813      -0.03328369       0.04009575       0.05451933       0.07267864       0.24285112
H        1.16313251      -1.88124410      -1.07444074       0.03765652      -0.02021235       0.01211586      -0.05843972       0.01502840       0.00916682
C        1.27228684      -0.70838733       1.20467453      -0.03378372       0.05538031      -0.00732303      -0.06254227       0.01879534      -0.04173480
N        1.41478786      -1.27000315       2.22898269       0.01198353      -0.00154662      -0.04968738       0.12813350      -0.00551157      -0.00598837
C        0.69361392       2.12843984       1.16444763      -0.01201565      -0.02502045       0.00986393       0.01540185       0.02663247      -0.01143051
N        0.30985219       2.69131004       2.12214427      -0.00094380      -0.01414407       0.01584500       0.01435947       0.06347402      -0.03157467
C        0.72234751       2.14551093      -1.31373973       0.00548299       0.01519240      -0.03982803      -0.00856490       0.00797807      -0.00214279
H        1.29248370       1.76607112      -2.16298672       0.03240281      -0.07798841      -0.01395438      -0.01093759       0.00322034      -0.00072092
H       -0.34037552       1.95742818      -1.47655768      -0.02337322      -0.00850107      -0.04312729      -0.01936518       0.07845938      -0.03891043
H        0.87918272       3.22357841      -1.24935524       0.05433392       0.01361342       0.07803799       0.04448539       0.00024853       0.02579429
17
Properties=species:S:1:pos:R:3:mp2_forces:R:3:forces:R:3 R1=CH3 R2=CN R3=CN R4=CH3 lg=Br nu=Br rxn-id=2077 mp2_energy=-149320.00869438876 energy=-149319.46560121476 free_energy=-149320.00869715877 pbc="F F F"
C        0.89435420      -0.03463894      -0.01575105      -0.00399222       0.02945845      -0.03855861      -0.60895291       0.00049578       0.04866391
C        1.23411906       1.47912311      -0.03230707      -0.01579362       0.00707883      -0.01690276      -0.15117002      -0.05872392      -0.00432122
H        2.32325797       1.61023865       0.02251735      -0.00493294      -0.02113249       0.03487407      -0.07160483      -0.49827410      -0.03926602
Br      -1.18405432      -0.09859454       0.21835420      -0.06346076      -0.00693888       0.01864872       0.22663327      -0.06407514       0.03056677
Br       3.99983930      -0.28885687      -0.07729593      -0.00417006       0.03680446      -0.07505321       0.52516184      -0.00570945      -0.02731551
C        1.09960577      -0.82538653      -1.32248404       0.01704065      -0.01244376       0.00369127      -0.12092776       0.04367441       0.04834267
H        0.20554565      -0.68041960      -1.92480828      -0.01872247       0.06368392       0.07126210       0.04823720      -0.06859686      -0.26449777
H        1.98261333      -0.54040259      -1.89130544       0.02228813      -0.03328369       0.04009575       0.05171496       0.16792660       0.36212447
H        1.19363770      -1.88598123      -1.08438078       0.03765652      -0.02021235       0.01211586      -0.04847263       0.04563721       0.03338994
C        1.29880153      -0.71274987       1.21332587      -0.03378372       0.05538031      -0.00732303      -0.00918726       0.05231264      -0.07631959
N        1.35066760      -1.27705485       2.24646399       0.01198353      -0.00154662      -0.04968738       0.16393230       0.01242905      -0.03882393
C        0.69034045       2.11722078       1.16741398      -0.01201565      -0.02502045       0.00986393       0.02949136       0.10592362      -0.00381416
N        0.30153340       2.66677511       2.13037309      -0.00094380      -0.01414407       0.01584500      -0.01248393       0.07298460       0.00010821
C        0.72523395       2.13868858      -1.31208699       0.00548299       0.01519240      -0.03982803      -0.01843770       0.03846557      -0.00770183
H        1.29305238       1.76342954      -2.16512699       0.03240281      -0.07798841      -0.01395438      -0.00283255       0.01062564       0.01576575
H       -0.33258252       1.91486607      -1.45227702      -0.02337322      -0.00850107      -0.04312729      -0.02929385       0.11356184      -0.07821606
H        0.85464564       3.22048096      -1.25995732       0.05433392       0.01361342       0.07803799       0.02819251       0.03134251       0.00131435
17
Properties=species:S:1:pos:R:3:mp2_forces:R:3:forces:R:3 R1=CH3 R2=CN R3=CN R4=CH3 lg=Br nu=Br rxn-id=2077 mp2_energy=-149320.00869438876 energy=-149319.19006208243 free_energy=-149320.00869715877 pbc="F F F"
C        0.99549273      -0.03558572      -0.02249937      -0.00399222       0.02945845      -0.03855861      -1.17643427       0.03780622       0.08438019
C        1.25942079       1.48869641      -0.03133607      -0.01579362       0.00707883      -0.01690276      -0.17538717      -0.04727089       0.00034591
H        2.33527494       1.69358736       0.02846466      -0.00493294      -0.02113249       0.03487407      -0.05307312      -0.51499479      -0.03221723
Br      -1.22069019      -0.08944672       0.21483432      -0.06346076      -0.00693888       0.01864872       0.57901517      -0.04628222      -0.00954353
Br       3.91174407      -0.29053495      -0.06982271      -0.00417006       0.03680446      -0.07505321       0.68606980      -0.05703367      -0.00263265
C        1.11975915      -0.83180049      -1.33103389       0.01704065      -0.01244376       0.00369127      -0.14683818       0.04514879       0.04786060
H        0.19789364      -0.66834850      -1.88207340      -0.01872247       0.06368392       0.07126210       0.03031597      -0.11320637      -0.31691544
H        1.97367100      -0.56631344      -1.95207405       0.02228813      -0.03328369       0.04009575       0.05125717       0.17456489       0.35393606
H        1.20227399      -1.89302424      -1.09220530       0.03765652      -0.02021235       0.01211586      -0.03081503       0.04578050       0.03280113
C        1.29924694      -0.71983090       1.22160241      -0.03378372       0.05538031      -0.00732303       0.11377839       0.06023183      -0.07922200
N        1.32484966      -1.28228687       2.25756966       0.01198353      -0.00154662      -0.04968738       0.13186360       0.00965940      -0.03473782
C        0.68588605       2.10061487       1.16769604      -0.01201565      -0.02502045       0.00986393       0.04387362       0.15071518       0.00060529
N        0.30350667       2.65757989       2.12877809      -0.00094380      -0.01414407       0.01584500      -0.02991775       0.05858476       0.02234479
C        0.72790976       2.13179973      -1.31065475       0.00548299       0.01519240      -0.03982803      -0.01311604       0.05091391      -0.00648624
H        1.29273819       1.76133287      -2.16792895       0.03240281      -0.07798841      -0.01395438       0.00225277       0.00546593       0.02425640
H       -0.32818974       1.89559274      -1.43847436      -0.02337322      -0.00850107      -0.04312729      -0.02116233       0.09895124      -0.07060221
H        0.84982343       3.21470573      -1.26017473       0.05433392       0.01361342       0.07803799       0.00831738       0.04096528      -0.01417325
17
Properties=species:S:1:pos:R:3:mp2_forces:R:3:forces:R:3 R1=CH3 R2=CN R3=CN R4=CH3 lg=Br nu=Br rxn-id=2077 mp2_energy=-149320.00869438876 energy=-149318.9525476091 free_energy=-149320.00869715877 pbc="F F F"
C        1.09238831      -0.03915320      -0.02868699      -0.00399222       0.02945845      -0.03855861      -1.20224152       0.05664943       0.07511285
C        1.27414410       1.49246554      -0.03128049      -0.01579362       0.00707883      -0.01690276      -0.12642006      -0.02799805       0.00276281
H        2.33989958       1.73631877       0.03077630      -0.00493294      -0.02113249       0.03487407      -0.02162204      -0.36641723      -0.02289908
Br      -1.26816892      -0.08573988       0.21618446      -0.06346076      -0.00693888       0.01864872       0.55467801      -0.02393068      -0.02664681
Br       3.85609200      -0.28734949      -0.06820988      -0.00417006       0.03680446      -0.07505321       0.58703213      -0.06155681       0.00413995
C        1.13195759      -0.83515383      -1.33512520       0.01704065      -0.01244376       0.00369127      -0.10202247       0.02857430       0.02659804
H        0.19544109      -0.65867452      -1.85607836      -0.01872247       0.06368392       0.07126210       0.02377000      -0.09540640      -0.24973283