18
Properties=species:S:1:pos:R:3:mp2_forces:R:3:forces:R:3 R1=CN R2=CH3 R3=NH2 R4=CH3 lg=F nu=F rxn-id=1573 mp2_energy=-13716.58550651916 energy=-13716.58549441061 free_energy=-13716.58549441061 pbc="F F F"
C        0.59540501      -0.09728074      -0.05936665       0.03817176       0.00289400       0.01097855       0.03828159       0.00286474       0.01101820
C        0.84447317       1.44274512      -0.13608961      -0.00352215       0.00575122      -0.00579743      -0.00354596       0.00572744      -0.00579606
H        1.71130640       1.57297609      -0.79867289      -0.02977612       0.01211253      -0.02726990      -0.02976408       0.01212219      -0.02727499
F       -0.59415168      -0.40154439      -0.78809664      -0.00369248      -0.04725253       0.04620284      -0.00374533      -0.04724423       0.04617881
F        3.06752078       0.29555229       1.04643142      -0.00455722      -0.05055897       0.06187627      -0.00456972      -0.05055959       0.06187164
C        1.64116382      -0.82388100      -0.80212150       0.03687671       0.00050064      -0.01856590       0.03685020       0.00051298      -0.01853912
N        2.28902175      -1.45767508      -1.54963335       0.00513911      -0.03042491       0.01826628       0.00513265      -0.03041038       0.01824704
C        0.40631038      -0.65411510       1.33427142      -0.00608007       0.00188313      -0.00427486      -0.00606676       0.00190703      -0.00429489
H        1.33262843      -0.47004348       1.87465416       0.01856832      -0.04534765      -0.05335660       0.01856622      -0.04535483      -0.05335269
H       -0.43965704      -0.15590506       1.80851257       0.02866535       0.05347689       0.03197567       0.02865631       0.05347515       0.03198327
H        0.20525986      -1.72713504       1.26466543      -0.00391845       0.00174185      -0.04382143      -0.00392588       0.00172879      -0.04382173
N        1.12954737       1.96915928       1.19564731      -0.01044993       0.00330556      -0.00604449      -0.01044892       0.00330308      -0.00605640
H        1.34861673       2.95460525       1.07505986      -0.01445572       0.00291299      -0.00633405      -0.01446469       0.00291173      -0.00632413
H        2.02688758       1.47322184       1.40800037      -0.01759369       0.00511325       0.02035865      -0.01758237       0.00512026       0.02035580
C       -0.35331363       2.16125388      -0.74282718      -0.00392537       0.01641703      -0.00610391      -0.00390885       0.01641506      -0.00609324
H       -0.56503497       1.81385824      -1.75496150      -0.02079903       0.03032957      -0.00867523      -0.02080065       0.03032460      -0.00869433
H       -1.24252296       2.01511935      -0.12635764       0.01077204       0.01000838       0.00933460       0.01075696       0.01000651       0.00934387
H       -0.13320507       3.23309968      -0.77934335      -0.01942307       0.02713704      -0.01874907      -0.01942071       0.02714948      -0.01875104
18
Properties=species:S:1:pos:R:3:mp2_forces:R:3:forces:R:3 R1=CN R2=CH3 R3=NH2 R4=CH3 lg=F nu=F rxn-id=1573 mp2_energy=-13716.58550651916 energy=-13716.585883643616 free_energy=-13716.58549441061 pbc="F F F"
C        0.62193796      -0.09187856      -0.04982630       0.03817176       0.00289400       0.01097855      -0.02240527      -0.00405320      -0.01051149
C        0.85899499       1.45015900      -0.13345265      -0.00352215       0.00575122      -0.00579743      -0.02165294      -0.00365761      -0.00962995
H        1.72260246       1.58778767      -0.79990222      -0.02977612       0.01211253      -0.02726990      -0.02808670      -0.00681288      -0.01936105
F       -0.57236113      -0.40332333      -0.77368714      -0.00369248      -0.04725253       0.04620284      -0.01593142      -0.00614129      -0.01011083
F        3.02542224       0.23436292       1.02814269      -0.00455722      -0.05055897       0.06187627       0.02377613       0.03280725       0.05609841
C        1.66119636      -0.81817922      -0.80336766       0.03687671       0.00050064      -0.01856590      -0.00762584      -0.00385363       0.00706260
N        2.25786491      -1.45490753      -1.59083384       0.00513911      -0.03042491       0.01826628       0.05086755      -0.01112263       0.05480864
C        0.40816811      -0.65005944       1.34046259      -0.00608007       0.00188313      -0.00427486       0.00689383      -0.00605668      -0.00647484
H        1.31722600      -0.47376093       1.90855595       0.01856832      -0.04534765      -0.05335660       0.04373069      -0.02809049      -0.05225173
H       -0.45445486      -0.15553150       1.78997811       0.02866535       0.05347689       0.03197567       0.04197251       0.01551702       0.03854726
H        0.21079381      -1.72237654       1.25198572      -0.00391845       0.00174185      -0.04382143      -0.02124583      -0.00169907      -0.00398192
N        1.13516135       1.98952602       1.19601084      -0.01044993       0.00330556      -0.00604449      -0.00994178      -0.01644083      -0.00910242
H        1.33197469       2.97975891       1.07477502      -0.01445572       0.00291299      -0.00633405       0.01794166      -0.02175755      -0.00669708
H        2.02812597       1.50480644       1.42265564      -0.01759369       0.00511325       0.02035865      -0.01526048      -0.03814706      -0.01110292
C       -0.34760792       2.15268232      -0.74053396      -0.00392537       0.01641703      -0.00610391      -0.01402980       0.01680545      -0.00433398
H       -0.56499013       1.78525880      -1.74396858      -0.02079903       0.03032957      -0.00867523      -0.01742545       0.03659117      -0.01174447
H       -1.22672728       2.00186737      -0.11126419       0.01077204       0.01000838       0.00933460      -0.02145728       0.03261828      -0.01026072
H       -0.14307159       3.22781872      -0.79595782      -0.01942307       0.02713704      -0.01874907       0.00988043       0.01349375       0.00904649
18
Properties=species:S:1:pos:R:3:mp2_forces:R:3:forces:R:3 R1=CN R2=CH3 R3=NH2 R4=CH3 lg=F nu=F rxn-id=1573 mp2_energy=-13716.58550651916 energy=-13716.562572445617 free_energy=-13716.58549441061 pbc="F F F"
C        0.63515123      -0.09020104      -0.04270179       0.03817176       0.00289400       0.01097855      -0.03178940      -0.00583597      -0.01406946
C        0.87048577       1.45161080      -0.12729015      -0.00352215       0.00575122      -0.00579743      -0.03176659      -0.00568578      -0.01312666
H        1.73565442       1.59075128      -0.79070229      -0.02977612       0.01211253      -0.02726990      -0.04135834      -0.01081947      -0.02744511
F       -0.56136263      -0.40194082      -0.76791797      -0.00369248      -0.04725253       0.04620284      -0.02056395      -0.00941287      -0.01543783
F        3.00934455       0.20979995       0.98279333      -0.00455722      -0.05055897       0.06187627       0.03300980       0.04963658       0.07067367
C        1.66915958      -0.81400079      -0.80419348       0.03687671       0.00050064      -0.01856590      -0.00921868      -0.00556612       0.01311942
N        2.23426214      -1.44302926      -1.62134589       0.00513911      -0.03042491       0.01826628       0.07398025      -0.01919745       0.07678715
C        0.40139523      -0.64608823       1.34556839      -0.00608007       0.00188313      -0.00427486       0.00749707      -0.00756133      -0.00769556
H        1.28234888      -0.44815336       1.94691569       0.01856832      -0.04534765      -0.05335660       0.05821277      -0.02881781      -0.06837393
H       -0.48953272      -0.17184648       1.76168643       0.02866535       0.05347689       0.03197567       0.04693738       0.01524192       0.05210640
H        0.23175221      -1.72307391       1.25821104      -0.00391845       0.00174185      -0.04382143      -0.01939065      -0.00435286      -0.00232842
N        1.14415216       1.99754170       1.20121423      -0.01044993       0.00330556      -0.00604449      -0.01246780      -0.02588143      -0.01216933
H        1.32427013       2.99095278       1.07948262      -0.01445572       0.00291299      -0.00633405       0.02672495      -0.03257460      -0.00649663
H        2.04089143       1.52526517       1.42476223      -0.01759369       0.00511325       0.02035865      -0.01924495      -0.05998600      -0.02258449
C       -0.34005823       2.14387225      -0.73633474      -0.00392537       0.01641703      -0.00610391      -0.02013618       0.02528911      -0.00545450
H       -0.55680972       1.76351791      -1.73482207      -0.02079903       0.03032957      -0.00867523      -0.02464423       0.05585496      -0.01757121
H       -1.21569299       1.98898307      -0.10325655       0.01077204       0.01000838       0.00933460      -0.03230016       0.04883918      -0.01553242
H       -0.14515549       3.22005011      -0.80229681      -0.01942307       0.02713704      -0.01874907       0.01651872       0.02082993       0.01559889
18
Properties=species:S:1:pos:R:3:mp2_forces:R:3:forces:R:3 R1=CN R2=CH3 R3=NH2 R4=CH3 lg=F nu=F rxn-id=1573 mp2_energy=-13716.58550651916 energy=-13716.534885221265 free_energy=-13716.58549441061 pbc="F F F"
C        0.64746735      -0.08871512      -0.03658570       0.03817176       0.00289400       0.01097855      -0.04252055      -0.00723868      -0.01702084
C        0.88150435       1.45297822      -0.12198713      -0.00352215       0.00575122      -0.00579743      -0.04221480      -0.00832771      -0.01612539
H        1.74790577       1.59393937      -0.78286079      -0.02977612       0.01211253      -0.02726990      -0.05271842      -0.01805672      -0.03237708
F       -0.55262250      -0.40021202      -0.76130002      -0.00369248      -0.04725253       0.04620284      -0.02400793      -0.01265664      -0.02348442
F        2.99362701       0.18561446       0.94373593      -0.00455722      -0.05055897       0.06187627       0.04416980       0.06640205       0.08328804
C        1.67543097      -0.81072674      -0.80652617       0.03687671       0.00050064      -0.01856590      -0.00846731      -0.00517415       0.02357443
N        2.21160211      -1.43291622      -1.64881164       0.00513911      -0.03042491       0.01826628       0.09402237      -0.02432009       0.09566426
C        0.39650097      -0.64310153       1.34969345      -0.00608007       0.00188313      -0.00427486       0.00575954      -0.00810613      -0.00860673
H        1.24952549      -0.42600943       1.98186328       0.01856832      -0.04534765      -0.05335660       0.07287568      -0.02490185      -0.08696836
H       -0.51853231      -0.18747829       1.73414467       0.02866535       0.05347689       0.03197567       0.04796366       0.01276354       0.06854051
H        0.25139003      -1.72360330       1.26373542      -0.00391845       0.00174185      -0.04382143      -0.01562994      -0.00636120       0.00099132
N        1.15202043       2.00603739       1.20537790      -0.01044993       0.00330556      -0.00604449      -0.01445046      -0.03682301      -0.01431082
H        1.31641659       3.00207842       1.08207878      -0.01445572       0.00291299      -0.00633405       0.03444729      -0.04429486      -0.00448430
H        2.05200512       1.54691266       1.42905197      -0.01759369       0.00511325       0.02035865      -0.02192271      -0.08400513      -0.03708473
C       -0.33285306       2.13579917      -0.73238373      -0.00392537       0.01641703      -0.00610391      -0.02580248       0.03375064      -0.00728385
H       -0.54893622       1.74404515      -1.72635536      -0.02079903       0.03032957      -0.00867523      -0.03172272       0.07433058      -0.02398829
H       -1.20510375       1.97652711      -0.09576578       0.01077204       0.01000838       0.00933460      -0.04226228       0.06430346      -0.02091115
H       -0.14709243       3.21284183      -0.80733285      -0.01942307       0.02713704      -0.01874907       0.02248125       0.02871590       0.02058741
18
Properties=species:S:1:pos:R:3:mp2_forces:R:3:forces:R:3 R1=CN R2=CH3 R3=NH2 R4=CH3 lg=F nu=F rxn-id=1573 mp2_energy=-13716.58550651916 energy=-13716.501334117886 free_energy=-13716.58549441061 pbc="F F F"
C        0.66108723      -0.08695436      -0.03109414       0.03817176       0.00289400       0.01097855      -0.06020390      -0.00829097      -0.01985831
C        0.89315572       1.45512050      -0.11732841      -0.00352215       0.00575122      -0.00579743      -0.05499952      -0.01322651      -0.01823599
H        1.76013030       1.59977225      -0.77637813      -0.02977612       0.01211253      -0.02726990      -0.06187747      -0.03448039      -0.03141032
F       -0.54507623      -0.39763792      -0.75240180      -0.00369248      -0.04725253       0.04620284      -0.02733366      -0.01493323      -0.03783641
F        2.97542479       0.16100403       0.91061281      -0.00455722      -0.05055897       0.06187627       0.06867810       0.08440406       0.09536535
C        1.68002417      -0.80886149      -0.81204894       0.03687671       0.00050064      -0.01856590      -0.00319545      -0.00025437       0.04497522
N        2.18854255      -1.42677880      -1.67518577       0.00513911      -0.03042491       0.01826628       0.10926847      -0.02124441       0.11507300
C        0.39433952      -0.64124947       1.35301386      -0.00608007       0.00188313      -0.00427486      -0.00153476      -0.00747657      -0.01039877
H        1.21897205      -0.41073692       2.01601303       0.01856832      -0.04534765      -0.05335660       0.09074870      -0.01147722      -0.11748845
H       -0.54073652      -0.20061386       1.70617330       0.02866535       0.05347689       0.03197567       0.04267180       0.00576501       0.09248913
H        0.26787619      -1.72386623       1.26652320      -0.00391845       0.00174185      -0.04382143      -0.01036025      -0.00813539       0.00726179
N        1.15841555       2.01711558       1.20863081      -0.01044993       0.00330556      -0.00604449      -0.01625506      -0.05241219      -0.01501205
H        1.30912354       3.01509287       1.08181471      -0.01445572       0.00291299      -0.00633405       0.03952684      -0.06021628      -0.00115820
H        2.06029399       1.57156581       1.43760361      -0.01759369       0.00511325       0.02035865      -0.02167422      -0.11258416      -0.05799047
C       -0.32585024       2.12761559      -0.72851664      -0.00392537       0.01641703      -0.00610391      -0.03100236       0.04305449      -0.01046210
H       -0.54116272       1.72507717      -1.71807824      -0.02079903       0.03032957      -0.00867523      -0.03849856       0.09324538      -0.03177937
H       -1.19435557       1.96280483      -0.08822770       0.01077204       0.01000838       0.00933460      -0.05135755       0.08004774      -0.02692235
H       -0.14994839       3.20554154      -0.81135334      -0.01942307       0.02713704      -0.01874907       0.02739884       0.03821501       0.02338830
18
Properties=species:S:1:pos:R:3:mp2_forces:R:3:forces:R:3 R1=CN R2=CH3 R3=NH2 R4=CH3 lg=F nu=F rxn-id=1573 mp2_energy=-13716.58550651916 energy=-13716.45348282655 free_energy=-13716.58549441061 pbc="F F F"
C        0.67943226      -0.08435933      -0.02551581       0.03817176       0.00289400       0.01097855      -0.09545202      -0.00952691      -0.02504809
C        0.90734765       1.45914740      -0.11289249      -0.00352215       0.00575122      -0.00579743      -0.07336489      -0.02298150      -0.01925414
H        1.77385337       1.61143349      -0.77099158      -0.02977612       0.01211253      -0.02726990      -0.06869120      -0.06851674      -0.02094009
F       -0.53739784      -0.39382121      -0.73877474      -0.00369248      -0.04725253       0.04620284      -0.03322148      -0.01173343      -0.06318193
F        2.95048206       0.13606189       0.88305804      -0.00455722      -0.05055897       0.06187627       0.12723720       0.10346282       0.10823342
C        1.68220004      -0.80941101      -0.82386727       0.03687671       0.00050064      -0.01856590       0.01088081       0.01323162       0.08765918
N        2.16186710      -1.42792444      -1.70378478       0.00513911      -0.03042491       0.01826628       0.11948331      -0.00224805       0.14090732
C        0.39630944      -0.64099510       1.35575338      -0.00608007       0.00188313      -0.00427486      -0.01926906      -0.00549997      -0.01499694
H        1.19010335      -0.40771856       2.05383751       0.01856832      -0.04534765      -0.05335660       0.11731554       0.01902810      -0.17304684
H       -0.55468409      -0.20875227       1.67534516       0.02866535       0.05347689       0.03197567       0.02622431      -0.00999158       0.13206420
H        0.27869171      -1.72391072       1.26326157      -0.00391845       0.00174185      -0.04382143      -0.00412250      -0.01122327       0.01993192
N        1.16293219       2.03412402       1.21112184      -0.01044993       0.00330556      -0.00604449      -0.01926706      -0.07746653      -0.01348357
H        1.30280680       3.03320427       1.07726084      -0.01445572       0.00291299      -0.00633405       0.03927206      -0.08512304       0.00251949
H        2.06441229       1.60318824       1.45391274      -0.01759369       0.00511325       0.02035865      -0.01661851      -0.15072477      -0.09073156
C       -0.31844688       2.11788913      -0.72441895      -0.00392537       0.01641703      -0.00610391      -0.03597682       0.05512436      -0.01621990
H       -0.53251779       1.70400799      -1.70925691      -0.02079903       0.03032957      -0.00867523      -0.04502664       0.11482995      -0.04211865
H       -1.18220659       1.94491952      -0.07989735       0.01077204       0.01000838       0.00933460      -0.05959978       0.09790278      -0.03469713
H       -0.15492915       3.19692784      -0.81437896      -0.01942307       0.02713704      -0.01874907       0.03019672       0.05145617       0.02240330
18
Properties=species:S:1:pos:R:3:mp2_forces:R:3:forces:R:3 R1=CN R2=CH3 R3=NH2 R4=CH3 lg=F nu=F rxn-id=1573 mp2_energy=-13716.58550651916 energy=-13716.377570566001 free_energy=-13716.58549441061 pbc="F F F"
C        0.70370843      -0.08092159      -0.01932496       0.03817176       0.00289400       0.01097855      -0.17114756      -0.01664259      -0.04652183
C        0.92485337       1.46519807      -0.10805344      -0.00352215       0.00575122      -0.00579743      -0.09861388      -0.03970171      -0.02093835
H        1.78996864       1.62910469      -0.76580122      -0.02977612       0.01211253      -0.02726990      -0.07351184      -0.12002941      -0.00165904
F       -0.52885423      -0.39029695      -0.72142604      -0.00369248      -0.04725253       0.04620284      -0.04294790       0.01364015      -0.08585388
F        2.91772735       0.11547298       0.86322237      -0.00455722      -0.05055897       0.06187627       0.24006224       0.11744198       0.12356429
C        1.67932769      -0.81309247      -0.84431415       0.03687671       0.00050064      -0.01856590       0.04731823       0.03718543       0.15670000
N        2.12921581      -1.43669508      -1.73697253       0.00513911      -0.03042491       0.01826628       0.12896397       0.03179471       0.17385890
C        0.40234797      -0.64217613       1.35800528      -0.00608007       0.00188313      -0.00427486      -0.04609788      -0.00508840      -0.02460022
H        1.16386735      -0.41968453       2.09461749       0.01856832      -0.04534765      -0.05335660       0.15525115       0.06510980      -0.25060848
H       -0.55882110      -0.20857559       1.64295266       0.02866535       0.05347689       0.03197567      -0.00177439      -0.03660368       0.18625913
H        0.28102243      -1.72317894       1.25220559      -0.00391845       0.00174185      -0.04382143      -0.00074057      -0.01948693       0.04274281
N        1.16560877       2.05764437       1.21347305      -0.01044993       0.00330556      -0.00604449      -0.02661029      -0.11227932      -0.01206067
H        1.29719902       3.05710057       1.06927681      -0.01445572       0.00291299      -0.00633405       0.03070101      -0.11883714       0.00197329
H        2.06451372       1.64316559       1.47904867      -0.01759369       0.00511325       0.02035865      -0.00970151      -0.19916099      -0.13420838
C       -0.30999311       2.10540485      -0.72005237      -0.00392537       0.01641703      -0.00610391      -0.04116283       0.07244075      -0.02510245
H       -0.52175681       1.67857113      -1.69950064      -0.02079903       0.03032957      -0.00867523      -0.05142314       0.14092506      -0.05550423
H       -1.16787330       1.92128363      -0.07076395       0.01077204       0.01000838       0.00933460      -0.06693967       0.11910661      -0.04451874
H       -0.16180606       3.18568654      -0.81682040      -0.01942307       0.02713704      -0.01874907       0.02837483       0.07018567       0.01647786
18
Properties=species:S:1:pos:R:3:mp2_forces:R:3:forces:R:3 R1=CN R2=CH3 R3=NH2 R4=CH3 lg=F nu=F rxn-id=1573 mp2_energy=-13716.58550651916 energy=-13716.262555572674 free_energy=-13716.58549441061 pbc="F F F"
C        0.73451632      -0.07718477      -0.01046510       0.03817176       0.00289400       0.01097855      -0.40563746      -0.05689408      -0.15571159
C        0.94389921       1.47173878      -0.10261129      -0.00352215       0.00575122      -0.00579743      -0.12902916      -0.06526767      -0.02872588
H        1.80599612       1.64846561      -0.76177429      -0.02977612       0.01211253      -0.02726990      -0.07374307      -0.17317832       0.02175003
F       -0.52081787      -0.39198025      -0.70632379      -0.00369248      -0.04725253       0.04620284      -0.00460918       0.09754955      -0.04057719
F        2.87396282       0.09805130       0.84303959      -0.00455722      -0.05055897       0.06187627       0.43318370       0.12306100       0.16465859
C        1.66876513      -0.81919391      -0.87224554       0.03687671       0.00050064      -0.01856590       0.15212845       0.06919532       0.24603442
N        2.09869247      -1.44495015      -1.77335447       0.00513911      -0.03042491       0.01826628       0.12016217       0.06245340       0.20046706
C        0.40928962      -0.64213565       1.36154316      -0.00608007       0.00188313      -0.00427486      -0.06980057      -0.01154214      -0.04287192
H        1.13527990      -0.43140006       2.13714057       0.01856832      -0.04534765      -0.05335660       0.19610665       0.10693717      -0.32315186
H       -0.56034840      -0.20543950       1.61033105       0.02866535       0.05347689       0.03197567      -0.03080298      -0.06655491       0.23277571
H        0.28364695      -1.72060536       1.24175590      -0.00391845       0.00174185      -0.04382143      -0.00198706      -0.03802202       0.07069096
N        1.16965945       2.08125519       1.21668941      -0.01044993       0.00330556      -0.00604449      -0.04092872      -0.14661890      -0.01542971
H        1.29121183       3.08150450       1.06559901      -0.01445572       0.00291299      -0.00633405       0.01638008      -0.14933447      -0.01481964
H        2.06616362       1.68508538       1.50543397      -0.01759369       0.00511325       0.02035865      -0.00761387      -0.24358371      -0.16965829
C       -0.30059813       2.09112608      -0.71505779      -0.00392537       0.01641703      -0.00610391      -0.04657006       0.09741630      -0.03552250
H       -0.50956049       1.65046634      -1.68860170      -0.02079903       0.03032957      -0.00867523      -0.05496199       0.16535690      -0.06924957
H       -1.15335490       1.89710560      -0.06191333       0.01077204       0.01000838       0.00933460      -0.06903604       0.13658897      -0.04814746
H       -0.16614771       3.17210201      -0.81941313      -0.01942307       0.02713704      -0.01874907       0.01675911       0.09243760       0.00748885
18
Properties=species:S:1:pos:R:3:mp2_forces:R:3:forces:R:3 R1=CN R2=CH3 R3=NH2 R4=CH3 lg=F nu=F rxn-id=1573 mp2_energy=-13716.58550651916 energy=-13716.09508968055 free_energy=-13716.58549441061 pbc="F F F"
C        0.78324360      -0.07025908       0.00828179       0.03817176       0.00289400       0.01097855      -1.05096744      -0.17554855      -0.48024268
C        0.95955481       1.47908449      -0.09897372      -0.00352215       0.00575122      -0.00579743      -0.14602141      -0.09378022      -0.03723648
H        1.81509826       1.66862189      -0.76380882      -0.02977612       0.01211253      -0.02726990      -0.05874421      -0.20489139       0.04579657
F       -0.52148442      -0.40370859      -0.70085282      -0.00369248      -0.04725253       0.04620284       0.25908314       0.26747193       0.17472505
F        2.81750569       0.08545877       0.82345173      -0.00455722      -0.05055897       0.06187627       0.68968176       0.12361540       0.24039112
C        1.64792345      -0.82814426      -0.90285594       0.03687671       0.00050064      -0.01856590       0.36764886       0.08525731       0.30731401
N        2.08524836      -1.45476862      -1.79879767       0.00513911      -0.03042491       0.01826628       0.06670825       0.07486074       0.18730521
C        0.41812185      -0.64140182       1.36684127      -0.00608007       0.00188313      -0.00427486      -0.08057420      -0.01794353      -0.05508745
H        1.11183733      -0.44311465       2.17568530       0.01856832      -0.04534765      -0.05335660       0.21051408       0.12767540      -0.34947764
H       -0.55682343      -0.20076524       1.58315145       0.02866535       0.05347689       0.03197567      -0.05846353      -0.08295757       0.25701422
H        0.28700315      -1.71674881       1.23332600      -0.00391845       0.00174185      -0.04382143       0.00046427      -0.05701551       0.08686372
N        1.17422415       2.09984954       1.21869158      -0.01044993       0.00330556      -0.00604449      -0.05236823      -0.15752019      -0.01501479
H        1.28955026       3.10044688       1.06695642      -0.01445572       0.00291299      -0.00633405       0.00303488      -0.14876826      -0.03795290
H        2.06670389       1.71551279       1.52613185      -0.01759369       0.00511325       0.02035865      -0.00250017      -0.24892926      -0.17364108
C       -0.29420977       2.07961911      -0.71063341      -0.00392537       0.01641703      -0.00610391      -0.04409722       0.11949236      -0.03999826
H       -0.50187982       1.63157322      -1.68053602      -0.02079903       0.03032957      -0.00867523      -0.04492437       0.16084041      -0.07307345
H       -1.14516197       1.88158102      -0.05680186       0.01077204       0.01000838       0.00933460      -0.05647932       0.12834951      -0.03500786
H       -0.16619946       3.16117450      -0.81948491      -0.01942307       0.02713704      -0.01874907      -0.00199515       0.09979143      -0.00267731
18
Properties=species:S:1:pos:R:3:mp2_forces:R:3:forces:R:3 R1=CN R2=CH3 R3=NH2 R4=CH3 lg=F nu=F rxn-id=1573 mp2_energy=-13716.58550651916 energy=-13715.865568792764 free_energy=-13716.58549441061 pbc="F F F"
C        0.85262554      -0.05827202       0.04034913       0.03817176       0.00289400       0.01097855      -1.52648376      -0.24494675      -0.71499408
C        0.96897460       1.48530018      -0.09660305      -0.00352215       0.00575122      -0.00579743      -0.11577268      -0.08150632      -0.03347758
H        1.81877600       1.68205257      -0.76672165      -0.02977612       0.01211253      -0.02726990      -0.03464599      -0.17299965       0.04820756
F       -0.53928210      -0.42180472      -0.71239967      -0.00369248      -0.04725253       0.04620284       0.51644634       0.33607653       0.35765093
F        2.77028214       0.07897288       0.80819046      -0.00455722      -0.05055897       0.06187627       0.74618001       0.10639522       0.26482740
C        1.62360171      -0.83496736      -0.92434938       0.03687671       0.00050064      -0.01856590       0.45596326       0.07301870       0.27472002
N        2.08037357      -1.46048215      -1.80941907       0.00513911      -0.03042491       0.01826628       0.03812812       0.03652479       0.10732849
C        0.42399039      -0.64082637       1.37038728      -0.00608007       0.00188313      -0.00427486      -0.05961210      -0.01817777      -0.02914495
H        1.09880186      -0.45230952       2.19833748       0.01856832      -0.04534765      -0.05335660       0.17460431       0.10695418      -0.27572743
H       -0.55228797      -0.19653068       1.56670051       0.02866535       0.05347689       0.03197567      -0.06064787      -0.07596321       0.22388628
H        0.28778740      -1.71340389       1.22699809      -0.00391845       0.00174185      -0.04382143       0.00777231      -0.05361131       0.07421918
N        1.17728046       2.11077514       1.21956708      -0.01044993       0.00330556      -0.00604449      -0.04365646      -0.12297468      -0.01018210
H        1.29009675       3.11064330       1.06873328      -0.01445572       0.00291299      -0.00633405      -0.00107281      -0.10545603      -0.03836001
H        2.06616563       1.73196703       1.53785498      -0.01759369       0.00511325       0.02035865       0.00258770      -0.19681711      -0.13518638
C       -0.29119285       2.07207696      -0.70804861      -0.00392537       0.01641703      -0.00610391      -0.02963482       0.11116921      -0.03080745
H       -0.49863525       1.62202518      -1.67619359      -0.02079903       0.03032957      -0.00867523      -0.02510451       0.12632286      -0.05946557