15
Properties=species:S:1:pos:R:3:mp2_forces:R:3:forces:R:3 R1=NH2 R2=H R3=CH3 R4=CN lg=F nu=Cl rxn-id=2463 mp2_energy=-22448.06135170081 energy=-22448.061348274787 free_energy=-22448.061348274787 pbc="F F F"
C        0.80407618      -0.02454542      -0.06649149       0.00155317      -0.04257675       0.04902634       0.00162399      -0.04261764       0.04903982
C        1.08969303       1.47009559      -0.04768833       0.02867988       0.01794335      -0.00123304       0.02864742       0.01784091      -0.00125026
H        2.18323119       1.49399669      -0.09779414       0.03996925       0.08187739       0.00235196       0.03998199       0.08188576       0.00234380
F       -0.58418077      -0.22479433       0.11636766      -0.00841798       0.02529520       0.01418979      -0.00838979       0.02532083       0.01418133
Cl       3.79553171      -0.40242134       1.29056529      -0.01245903      -0.00255735       0.04365061      -0.01245255      -0.00255678       0.04365209
H        1.33321610      -0.44719128       0.78463577      -0.03399561      -0.03795441       0.02790681      -0.03403414      -0.03793380       0.02786028
N        1.24654939      -0.64706432      -1.27266289      -0.01017701       0.02772425       0.02493369      -0.01021126       0.02775227       0.02500367
H        0.45796224      -0.82756155      -1.87940917       0.04259660       0.04550663      -0.01391700       0.04259636       0.04550243      -0.01391923
H        1.73739934      -1.50145649      -1.05082953      -0.02680667      -0.02388712      -0.06095523      -0.02680884      -0.02388682      -0.06096515
C        0.62750677       2.12511122       1.25624676       0.01240730      -0.02627344      -0.01206222       0.01239799      -0.02627239      -0.01206105
H       -0.44931468       2.01116036       1.39560508       0.01325849      -0.01877102      -0.05353019       0.01323960      -0.01877420      -0.05353026
H        1.15055898       1.63074207       2.07774986       0.00103922       0.01496614       0.00473067       0.00104902       0.01495617       0.00474846
H        0.87246178       3.19011010       1.28119544       0.02936310      -0.04323670      -0.04060642       0.02936952      -0.04320047      -0.04060326
C        0.55837483       2.14334210      -1.23269838      -0.00152190       0.00936124       0.01502038      -0.00159450       0.00940068       0.01495321
N        0.14867889       2.71821188      -2.17122496      -0.07548880      -0.02741740       0.00049386      -0.07541479      -0.02741696       0.00054655
15
Properties=species:S:1:pos:R:3:mp2_forces:R:3:forces:R:3 R1=NH2 R2=H R3=CH3 R4=CN lg=F nu=Cl rxn-id=2463 mp2_energy=-22448.06135170081 energy=-22448.08249496149 free_energy=-22448.061348274787 pbc="F F F"
C        0.80709095      -0.03596716      -0.06877598       0.00155317      -0.04257675       0.04902634       0.00778462      -0.00640043      -0.00288514
C        1.11680686       1.45517708      -0.04826174       0.02867988       0.01794335      -0.00123304       0.00030341      -0.00483797      -0.00476473
H        2.20937627       1.49041689      -0.11079701       0.03996925       0.08187739       0.00235196      -0.00030493       0.00083886      -0.00937338
F       -0.59754473      -0.19260776       0.07570559      -0.00841798       0.02529520       0.01418979       0.00944830      -0.01512742       0.01863067
Cl       3.75214822      -0.30595308       1.39129683      -0.01245903      -0.00255735       0.04365061      -0.00974421       0.03720309       0.06600282
H        1.28905863      -0.48056234       0.79826310      -0.03399561      -0.03795441       0.02790681       0.02363622      -0.00418702      -0.00993105
N        1.26892216      -0.65605804      -1.26127732      -0.01017701       0.02772425       0.02493369      -0.00282242      -0.00264976      -0.00712415
H        0.53290785      -0.69513795      -1.95258981       0.04259660       0.04550663      -0.01391700       0.00622745       0.03785163      -0.01754855
H        1.63310349      -1.57667638      -1.06686267      -0.02680667      -0.02388712      -0.06095523      -0.04475748      -0.02102027      -0.02105134
C        0.66426628       2.11229613       1.25552847       0.01240730      -0.02627344      -0.01206222       0.00645833      -0.00425210      -0.00327359
H       -0.40477128       1.95863567       1.41261377       0.01325849      -0.01877102      -0.05353019       0.00460953       0.00801750      -0.00272983
H        1.22707115       1.65873508       2.07411925       0.00103922       0.01496614       0.00473067       0.00355625      -0.01142173      -0.00526782
H        0.86896751       3.18511966       1.24320175       0.02936310      -0.04323670      -0.04060642       0.01891601      -0.00639606      -0.00290227
C        0.54066384       2.11966926      -1.21875569      -0.00152190       0.00936124       0.01502038      -0.00908522      -0.00356637      -0.00206975
N        0.06367777       2.67064822      -2.13984156      -0.07548880      -0.02741740       0.00049386      -0.01422586      -0.00405197       0.00428812
15
Properties=species:S:1:pos:R:3:mp2_forces:R:3:forces:R:3 R1=NH2 R2=H R3=CH3 R4=CN lg=F nu=Cl rxn-id=2463 mp2_energy=-22448.06135170081 energy=-22448.070918279547 free_energy=-22448.061348274787 pbc="F F F"
C        0.79413796      -0.03175706      -0.06653706       0.00155317      -0.04257675       0.04902634       0.00789446      -0.00803777      -0.00279878
C        1.11725586       1.45663632      -0.04295005       0.02867988       0.01794335      -0.00123304      -0.00229033      -0.00596342      -0.00494751
H        2.21026802       1.48282978      -0.10276128       0.03996925       0.08187739       0.00235196      -0.00289451      -0.00082606      -0.00947085
F       -0.61612749      -0.17253218       0.04048030      -0.00841798       0.02529520       0.01418979       0.01031270      -0.02180030       0.02534734
Cl       3.75826155      -0.31389183       1.32193255      -0.01245903      -0.00255735       0.04365061      -0.00584889       0.03363848       0.07372562
H        1.24619259      -0.48004164       0.81443251      -0.03399561      -0.03795441       0.02790681       0.03064862      -0.00537603      -0.01244502
N        1.27916422      -0.66053642      -1.24490776      -0.01017701       0.02772425       0.02493369      -0.00514521      -0.00127416      -0.01047777
H        0.55825746      -0.70460342      -1.95115354       0.04259660       0.04550663      -0.01391700      -0.00045471       0.03239532      -0.01682227
H        1.64550484      -1.57716929      -1.03713057      -0.02680667      -0.02388712      -0.06095523      -0.03781580      -0.01733982      -0.02594415
C        0.66414540       2.11318558       1.26123155       0.01240730      -0.02627344      -0.01206222       0.00505210      -0.00272887      -0.00443406
H       -0.39786262       1.92913774       1.43300040       0.01325849      -0.01877102      -0.05353019       0.00114383       0.01816721      -0.00581484
H        1.24945255       1.68138264       2.07591830       0.00103922       0.01496614       0.00473067      -0.00263559      -0.01342298      -0.00479496
H        0.83658354       3.19147067       1.23983329       0.02936310      -0.04323670      -0.04060642       0.02593560      -0.00597301      -0.00479223
C        0.54838634       2.12260067      -1.21588593      -0.00152190       0.00936124       0.01502038      -0.01064007      -0.00263862      -0.00291634
N        0.07812477       2.67102369      -2.14193573      -0.07548880      -0.02741740       0.00049386      -0.01326219       0.00118001       0.00658583
15
Properties=species:S:1:pos:R:3:mp2_forces:R:3:forces:R:3 R1=NH2 R2=H R3=CH3 R4=CN lg=F nu=Cl rxn-id=2463 mp2_energy=-22448.06135170081 energy=-22448.056262699236 free_energy=-22448.061348274787 pbc="F F F"
C        0.78551033      -0.02578720      -0.06235255       0.00155317      -0.04257675       0.04902634       0.00455631      -0.01045628      -0.00316473
C        1.12040676       1.46015734      -0.03611800       0.02867988       0.01794335      -0.00123304      -0.00858491      -0.00801916      -0.00538251
H        2.21393145       1.48072463      -0.09054370       0.03996925       0.08187739       0.00235196      -0.00910601      -0.00874454      -0.00975436
F       -0.62871920      -0.15008181       0.01142727      -0.00841798       0.02529520       0.01418979       0.00834290      -0.03309268       0.03476938
Cl       3.77123491      -0.33022994       1.23698597      -0.01245903      -0.00255735       0.04365061      -0.00109093       0.02731585       0.08192574
H        1.20992882      -0.47766993       0.83042834      -0.03399561      -0.03795441       0.02790681       0.03829579      -0.00562147      -0.01629787
N        1.28759243      -0.66315870      -1.22898729      -0.01017701       0.02772425       0.02493369      -0.00820031       0.00017795      -0.01345722
H        0.57387352      -0.72045054      -1.94106089       0.04259660       0.04550663      -0.01391700      -0.00335884       0.02592829      -0.02107838
H        1.66412220      -1.57241681      -1.00794314      -0.02680667      -0.02388712      -0.06095523      -0.02707410      -0.01140668      -0.02887823
C        0.65899413       2.11484403       1.26625923       0.01240730      -0.02627344      -0.01206222       0.00360057      -0.00014879      -0.00542245
H       -0.39991421       1.91330565       1.43755375       0.01325849      -0.01877102      -0.05353019      -0.00140017       0.02854946      -0.00301453
H        1.24949277       1.69306805       2.08256510       0.00103922       0.01496614       0.00473067      -0.00494706      -0.01108958      -0.00547060
H        0.81375449       3.19569250       1.24447735       0.02936310      -0.04323670      -0.04060642       0.03093070      -0.00413457      -0.00940546
C        0.55885551       2.12419323      -1.21344875      -0.00152190       0.00936124       0.01502038      -0.01246651      -0.00027900      -0.00393382
N        0.09268106       2.66554478      -2.14567572      -0.07548880      -0.02741740       0.00049386      -0.00949742       0.01102119       0.00856506
15
Properties=species:S:1:pos:R:3:mp2_forces:R:3:forces:R:3 R1=NH2 R2=H R3=CH3 R4=CN lg=F nu=Cl rxn-id=2463 mp2_energy=-22448.06135170081 energy=-22448.044579408303 free_energy=-22448.061348274787 pbc="F F F"
C        0.78516883      -0.01845655      -0.05997891       0.00155317      -0.04257675       0.04902634      -0.00397792      -0.01325348      -0.00454003
C        1.12637080       1.46634278      -0.03277461       0.02867988       0.01794335      -0.00123304      -0.01821926      -0.01128306      -0.00626057
H        2.21995234       1.48945874      -0.08535454       0.03996925       0.08187739       0.00235196      -0.01813551      -0.02774348      -0.00810941
F       -0.63116917      -0.12967600      -0.00606969      -0.00841798       0.02529520       0.01418979       0.00179889      -0.04797262       0.04212175
Cl       3.76589620      -0.35347850       1.18471640      -0.01245903      -0.00255735       0.04365061       0.01746377       0.01995843       0.09226410
H        1.19214454      -0.47266291       0.83963113      -0.03399561      -0.03795441       0.02790681       0.04184146      -0.00402683      -0.02003501
N        1.29311280      -0.66281655      -1.22076366      -0.01017701       0.02772425       0.02493369      -0.01144964       0.00231149      -0.01560813
H        0.57597711      -0.73651077      -1.92768491       0.04259660       0.04550663      -0.01391700       0.00000794       0.02044938      -0.02954292
H        1.68109047      -1.56482895      -0.98951139      -0.02680667      -0.02388712      -0.06095523      -0.01642364      -0.00306487      -0.02994178
C        0.65607618       2.11522245       1.26947592       0.01240730      -0.02627344      -0.01206222       0.00180118       0.00367487      -0.00666607
H       -0.40004509       1.89709380       1.43697485       0.01325849      -0.01877102      -0.05353019      -0.00483324       0.04132051       0.00381000
H        1.24921353       1.69854470       2.08661191       0.00103922       0.01496614       0.00473067      -0.00469850      -0.00735117      -0.00784322
H        0.79529319       3.19811779       1.25195314       0.02936310      -0.04323670      -0.04060642       0.03585434      -0.00022607      -0.01527147
C        0.56506531       2.12548546      -1.21292749      -0.00152190       0.00936124       0.01502038      -0.01409965       0.00358118      -0.00578054
N        0.09759795       2.65589979      -2.15073119      -0.07548880      -0.02741740       0.00049386      -0.00693022       0.02362572       0.01140330
15
Properties=species:S:1:pos:R:3:mp2_forces:R:3:forces:R:3 R1=NH2 R2=H R3=CH3 R4=CN lg=F nu=Cl rxn-id=2463 mp2_energy=-22448.06135170081 energy=-22448.036575607162 free_energy=-22448.061348274787 pbc="F F F"
C        0.78618729      -0.01381226      -0.05936292       0.00155317      -0.04257675       0.04902634      -0.01085683      -0.01445123      -0.00652688
C        1.13166256       1.47025178      -0.03179617       0.02867988       0.01794335      -0.00123304      -0.02620084      -0.01284568      -0.00693981
H        2.22510965       1.49635306      -0.08494257       0.03996925       0.08187739       0.00235196      -0.02541400      -0.04307973      -0.00591126
F       -0.63153149      -0.11589643      -0.01714981      -0.00841798       0.02529520       0.01418979      -0.00425314      -0.05891393       0.04446009
Cl       3.75146668      -0.36578080       1.16257692      -0.01245903      -0.00255735       0.04365061       0.04019828       0.01406944       0.10252071
H        1.18215910      -0.46954035       0.84422555      -0.03399561      -0.03795441       0.02790681       0.04356353      -0.00262264      -0.02286431
N        1.29641804      -0.66285711      -1.21674789      -0.01017701       0.02772425       0.02493369      -0.01299822       0.00428962      -0.01778030
H        0.57709064      -0.74372858      -1.92055664       0.04259660       0.04550663      -0.01391700       0.00266876       0.01595337      -0.03620397
H        1.68821223      -1.56190425      -0.98000158      -0.02680667      -0.02388712      -0.06095523      -0.01167473       0.00221643      -0.02982583
C        0.65692786       2.11438908       1.27132513       0.01240730      -0.02627344      -0.01206222      -0.00021035       0.00678296      -0.00708379
H       -0.39477715       1.87754368       1.44062881       0.01325849      -0.01877102      -0.05353019      -0.00845451       0.05247044       0.01041438
H        1.25821958       1.70666611       2.08711143       0.00103922       0.01496614       0.00473067      -0.00516193      -0.00576233      -0.01052911
H        0.77732978       3.19945990       1.25388887       0.02936310      -0.04323670      -0.04060642       0.04097791       0.00263218      -0.01704430
C        0.56839302       2.12649415      -1.21253696      -0.00152190       0.00936124       0.01502038      -0.01597732       0.00701786      -0.00826071
N        0.09887719       2.65009731      -2.15309519      -0.07548880      -0.02741740       0.00049386      -0.00620661       0.03224323       0.01157508
15
Properties=species:S:1:pos:R:3:mp2_forces:R:3:forces:R:3 R1=NH2 R2=H R3=CH3 R4=CN lg=F nu=Cl rxn-id=2463 mp2_energy=-22448.06135170081 energy=-22448.016612236846 free_energy=-22448.061348274787 pbc="F F F"
C        0.79338051      -0.00410953      -0.05868922       0.00155317      -0.04257675       0.04902634      -0.03257645      -0.01870749      -0.01044481
C        1.14956127       1.47804968      -0.02869165       0.02867988       0.01794335      -0.00123304      -0.05097321      -0.01805782      -0.01058899
H        2.24274581       1.51389711      -0.08034464       0.03996925       0.08187739       0.00235196      -0.04777135      -0.07971892      -0.00639775
F       -0.62703934      -0.08178679      -0.04269728      -0.00841798       0.02529520       0.01418979      -0.02420007      -0.08648693       0.06708232
Cl       3.73158469      -0.37267645       1.12447465      -0.01245903      -0.00255735       0.04365061       0.08285207       0.00152880       0.12331088
H        1.16263699      -0.46628619       0.85266339      -0.03399561      -0.03795441       0.02790681       0.05640156       0.00206160      -0.03244718
N        1.30248971      -0.66257356      -1.21219452      -0.01017701       0.02772425       0.02493369      -0.02325553       0.00477612      -0.01829357
H        0.57064386      -0.75300135      -1.90195190       0.04259660       0.04550663      -0.01391700       0.02106821       0.00428579      -0.06659103
H        1.69161459      -1.56093827      -0.96711854      -0.02680667      -0.02388712      -0.06095523       0.00354432       0.01586082      -0.02465427
C        0.65905804       2.11097944       1.27419070       0.01240730      -0.02627344      -0.01206222      -0.00483413       0.01336148      -0.00725415
H       -0.38892513       1.85098301       1.43036337       0.01325849      -0.01877102      -0.05353019      -0.01578318       0.07439827       0.03356749
H        1.25960762       1.70756580       2.09277672       0.00103922       0.01496614       0.00473067      -0.00063792      -0.00039274      -0.01766105
H        0.75796613       3.19811366       1.26541689       0.02936310      -0.04323670      -0.04060642       0.05027399       0.00986078      -0.02363410
C        0.57678719       2.12438820      -1.21036803      -0.00152190       0.00936124       0.01502038      -0.02124451       0.01631965      -0.01108886
N        0.08963305       2.62513051      -2.15426297      -0.07548880      -0.02741740       0.00049386       0.00713621       0.06091059       0.00509507
15
Properties=species:S:1:pos:R:3:mp2_forces:R:3:forces:R:3 R1=NH2 R2=H R3=CH3 R4=CN lg=F nu=Cl rxn-id=2463 mp2_energy=-22448.06135170081 energy=-22447.97915936723 free_energy=-22448.061348274787 pbc="F F F"
C        0.80513197       0.00374186      -0.05557387       0.00155317      -0.04257675       0.04902634      -0.07457214      -0.01353354      -0.02452361
C        1.16861440       1.48566105      -0.02527995       0.02867988       0.01794335      -0.00123304      -0.07931958      -0.02125502      -0.01544624
H        2.26026553       1.54627375      -0.07885137       0.03996925       0.08187739       0.00235196      -0.06352958      -0.16419937       0.00356456
F       -0.61855497      -0.04688126      -0.07458985      -0.00841798       0.02529520       0.01418979      -0.05766408      -0.10877351       0.10049681
Cl       3.70074832      -0.37257975       1.07915360      -0.01245903      -0.00255735       0.04365061       0.15503139      -0.01662111       0.15841806
H        1.13577658      -0.46583725       0.86656720      -0.03399561      -0.03795441       0.02790681       0.09441293       0.02081651      -0.05724480
N        1.31250342      -0.66494440      -1.20470359      -0.01017701       0.02772425       0.02493369      -0.04781912       0.00741344      -0.02111063
H        0.56302506      -0.75526245      -1.87535528       0.04259660       0.04550663      -0.01391700       0.05024815      -0.02496437      -0.13596771
H        1.68852351      -1.56841771      -0.95564896      -0.02680667      -0.02388712      -0.06095523       0.01891070       0.04305042       0.00060060
C        0.66192681       2.10502473       1.27759682       0.01240730      -0.02627344      -0.01206222      -0.01027245       0.02418210      -0.00552127
H       -0.37967265       1.81609108       1.42321266       0.01325849      -0.01877102      -0.05353019      -0.02574293       0.10054456       0.05880302
H        1.26663445       1.70936187       2.09705220       0.00103922       0.01496614       0.00473067       0.00181422       0.00764204      -0.02273821
H        0.73422715       3.19398133       1.27517513       0.02936310      -0.04323670      -0.04060642       0.05395502       0.02216723      -0.02188466
C        0.58420578       2.11991243      -1.20804336      -0.00152190       0.00936124       0.01502038      -0.02143404       0.04105154      -0.01611914
N        0.08838960       2.60160999      -2.15714439      -0.07548880      -0.02741740       0.00049386       0.00598151       0.08247908      -0.00132677
15
Properties=species:S:1:pos:R:3:mp2_forces:R:3:forces:R:3 R1=NH2 R2=H R3=CH3 R4=CN lg=F nu=Cl rxn-id=2463 mp2_energy=-22448.06135170081 energy=-22447.82173589504 free_energy=-22448.061348274787 pbc="F F F"
C        0.84551467       0.00587229      -0.03991828       0.00155317      -0.04257675       0.04902634      -0.28371377       0.02535428      -0.07756268
C        1.20730333       1.49339589      -0.01670762       0.02867988       0.01794335      -0.00123304      -0.14564441      -0.01485226      -0.02275924
H        2.28932524       1.64098303      -0.08588410       0.03996925       0.08187739       0.00235196      -0.07411896      -0.41400503       0.05413548
F       -0.58768365       0.00493216      -0.12237109      -0.00841798       0.02529520       0.01418979      -0.10545353      -0.13305210       0.16378918
Cl       3.60981218      -0.36114081       0.99809325      -0.01245903      -0.00255735       0.04365061       0.43521633      -0.07850648       0.27922483
H        1.08694329      -0.48282280       0.89938172      -0.03399561      -0.03795441       0.02790681       0.23184852       0.09839087      -0.12783519
N        1.33708489      -0.67082997      -1.19269318      -0.01017701       0.02772425       0.02493369      -0.14648070       0.02092652      -0.02109409
H        0.53723866      -0.74053250      -1.80471578       0.04259660       0.04550663      -0.01391700       0.12019831      -0.14772484      -0.39134646
H        1.68426250      -1.59217394      -0.96150207      -0.02680667      -0.02388712      -0.06095523       0.02938968       0.12166285       0.10523824
C        0.66794449       2.09198108       1.27997366       0.01240730      -0.02627344      -0.01206222      -0.02647317       0.05790023       0.00591987
H       -0.36651998       1.76792473       1.39391287       0.01325849      -0.01877102      -0.05353019      -0.04788780       0.14777674       0.12063725
H        1.26603007       1.70533049       2.10881718       0.00103922       0.01496614       0.00473067       0.00923235       0.01897780      -0.03802416
H        0.71219775       3.18159626       1.28064114       0.02936310      -0.04323670      -0.04060642       0.03545708       0.05845799       0.01495920
C        0.58986452       2.09701789      -1.19960708      -0.00152190       0.00936124       0.01502038      -0.00810657       0.16103255      -0.05764223
N        0.09242701       2.56620148      -2.15385364      -0.07548880      -0.02741740       0.00049386      -0.02346338       0.07766089      -0.00764000
15
Properties=species:S:1:pos:R:3:mp2_forces:R:3:forces:R:3 R1=NH2 R2=H R3=CH3 R4=CN lg=F nu=Cl rxn-id=2463 mp2_energy=-22448.06135170081 energy=-22447.50336875583 free_energy=-22448.061348274787 pbc="F F F"
C        0.90761131       0.00240992      -0.02388981       0.00155317      -0.04257675       0.04902634      -1.10045162       0.07034864      -0.14596556
C        1.24216847       1.49777100      -0.01092128       0.02867988       0.01794335      -0.00123304      -0.21872558      -0.00807523      -0.02915310
H        2.30809554       1.73204161      -0.09750002       0.03996925       0.08187739       0.00235196      -0.06188227      -0.58823707       0.09141802
F       -0.56492994       0.04027239      -0.16210786      -0.00841798       0.02529520       0.01418979       0.26442597      -0.11830846       0.24922809
Cl       3.51636178      -0.34555522       0.93799795      -0.01245903      -0.00255735       0.04365061       0.81489964      -0.14933746       0.44362446
H        1.03223578      -0.50276426       0.92704063      -0.03399561      -0.03795441       0.02790681       0.46560180       0.13720442      -0.13700866
N        1.36879208      -0.67534570      -1.18783861      -0.01017701       0.02772425       0.02493369      -0.31571961       0.05206398       0.04333183
H        0.51099949      -0.70920733      -1.71908736       0.04259660       0.04550663      -0.01391700       0.19472259      -0.34090693      -0.79548640
H        1.67676620      -1.61844211      -0.98228810      -0.02680667      -0.02388712      -0.06095523       0.03817528       0.19919540       0.20089423
C        0.67466769       2.07852907       1.27912545       0.01240730      -0.02627344      -0.01206222      -0.03415059       0.09643943       0.01931315
H       -0.35351022       1.72958967       1.36728238       0.01325849      -0.01877102      -0.05353019      -0.05812854       0.17228173       0.16359738
H        1.26665800       1.70248470       2.11721018       0.00103922       0.01496614       0.00473067       0.01678353       0.01467828      -0.04817730
H        0.69989330       3.16807604       1.27876323       0.02936310      -0.04323670      -0.04060642       0.00787940       0.09061332       0.04443192
C        0.58896249       2.06579079      -1.19399983      -0.00152190       0.00936124       0.01502038       0.08685835       0.29392390      -0.00133672
N        0.09697301       2.54208469      -2.14621997      -0.07548880      -0.02741740       0.00049386      -0.10028834       0.07811606      -0.09871135
15
Properties=species:S:1:pos:R:3:mp2_forces:R:3:forces:R:3 R1=NH2 R2=H R3=CH3 R4=CN lg=F nu=Cl rxn-id=2463 mp2_energy=-22448.06135170081 energy=-22447.08142665712 free_energy=-22448.061348274787 pbc="F F F"
C        0.99523736      -0.00318574      -0.01229339       0.00155317      -0.04257675       0.04902634      -2.30346217       0.11963207      -0.29486053
C        1.25941238       1.49863085      -0.00899794       0.02867988       0.01794335      -0.00123304      -0.21705364      -0.00398911      -0.01327444
H        2.31310418       1.77886572      -0.10482773       0.03996925       0.08187739       0.00235196      -0.03635427      -0.55249082       0.08468134
F       -0.58603434       0.04973596      -0.18213401      -0.00841798       0.02529520       0.01418979       1.06234806      -0.08104257       0.30097659
Cl       3.45087649      -0.33357041       0.90291187      -0.01245903      -0.00255735       0.04365061       1.03338533      -0.17718147       0.53197537
H        0.99502075      -0.51373263       0.93797855      -0.03399561      -0.03795441       0.02790681       0.61900974       0.07131435      -0.01937350
N        1.39394201      -0.67958475      -1.19130964      -0.01017701       0.02772425       0.02493369      -0.36721666       0.08240507       0.10434777
H        0.49568122      -0.68229160      -1.65602286       0.04259660       0.04550663      -0.01391700       0.21272688      -0.41630229      -0.93828516
H        1.67380807      -1.63435864      -0.99830660      -0.02680667      -0.02388712      -0.06095523       0.04343372       0.20221449       0.19915461
C        0.67751978       2.07089516       1.27760795       0.01240730      -0.02627344      -0.01206222      -0.02322134       0.10012256       0.02180498
H       -0.34861807       1.71562350       1.35451084       0.01325849      -0.01877102      -0.05353019      -0.04428218       0.15406301       0.15423742
H        1.26568851       1.70153644       2.12100461       0.00103922       0.01496614       0.00473067       0.02192008       0.00454385      -0.04617645
H        0.69909326       3.16093291       1.27518887       0.02936310      -0.04323670      -0.04060642      -0.00575921       0.07881122       0.04371863
C        0.58344379       2.04125446      -1.19131341      -0.00152190       0.00936124       0.01502038       0.09673932       0.39836633      -0.06581033
N        0.10356960       2.53698405      -2.14043014      -0.07548880      -0.02741740       0.00049386      -0.09221365       0.01953330      -0.06311632
15
Properties=species:S:1:pos:R:3:mp2_forces:R:3:forces:R:3 R1=NH2 R2=H R3=CH3 R4=CN lg=F nu=Cl rxn-id=2463 mp2_energy=-22448.06135170081 energy=-22446.721078396375 free_energy=-22448.061348274787 pbc="F F F"
C        1.07230932      -0.00721956      -0.00240927       0.00155317      -0.04257675       0.04902634      -2.49905845       0.14297291      -0.38060650
C        1.26677727       1.49867048      -0.00839083       0.02867988       0.01794335      -0.00123304      -0.17064213       0.01923906      -0.00967400
H        2.31430463       1.79735274      -0.10770713       0.03996925       0.08187739       0.00235196      -0.01707807      -0.43125935       0.06600750
F       -0.62163110       0.05246172      -0.19231298      -0.00841798       0.02529520       0.01418979       1.25637507      -0.06696749       0.27015762
Cl       3.41615836      -0.32763189       0.88520166      -0.01245903      -0.00255735       0.04365061       0.96157159      -0.15852431       0.48932017
H        0.97413785      -0.51614675       0.93862289      -0.03399561      -0.03795441       0.02790681       0.56095684      -0.00251239       0.09714304
N        1.40625930      -0.68234693      -1.19477077      -0.01017701       0.02772425       0.02493369      -0.29159515       0.06645149       0.07699864
H        0.48863030      -0.66836931      -1.62465010       0.04259660       0.04550663      -0.01391700       0.16541030      -0.34776289      -0.78683916
H        1.67243576      -1.64112157      -1.00496013      -0.02680667      -0.02388712      -0.06095523       0.04954760       0.15795757       0.15593901
C        0.67835904       2.06754576       1.27689122       0.01240730      -0.02627344      -0.01206222      -0.01333766       0.08158664       0.01835287
H       -0.34702374       1.71034371       1.34943562       0.01325849      -0.01877102      -0.05353019      -0.02705411       0.12177165       0.12278110