13
Properties=species:S:1:pos:R:3:mp2_forces:R:3:forces:R:3 R1=CN R2=H R3=H R4=CH3 lg=Cl nu=Br rxn-id=1217 mp2_energy=-88244.40344011296 energy=-88244.40344022897 free_energy=-88244.40344022897 pbc="F F F"
C        0.56660585      -0.02005565      -0.02600295       0.08001602       0.00790617       0.02152849       0.08004519       0.00787869       0.02155129
C        0.82839294       1.48460508      -0.11841097       0.02182266       0.01000990      -0.01290172       0.02181848       0.00993852      -0.01286105
H        1.91139873       1.59891268      -0.03331490      -0.00740150      -0.03871315      -0.01934256      -0.00740620      -0.03870834      -0.01933889
Cl      -1.07856475      -0.33674438       0.68384533      -0.04988319       0.00787559      -0.02442640      -0.04986550       0.00788831      -0.02444266
Br       3.94175401      -0.11801100      -0.49888694      -0.01661011       0.00605030       0.07965451      -0.01660402       0.00605035       0.07965236
H        1.28573930      -0.48567598       0.64676369       0.03488634      -0.00621489      -0.05474626       0.03484084      -0.00618258      -0.05477663
H        0.35685354       1.95186576       0.75161101       0.03678654      -0.00213726      -0.00561877       0.03678128      -0.00212741      -0.00562484
C        0.60681303      -0.70324389      -1.31642578      -0.00822148      -0.02301856      -0.01159537      -0.00821420      -0.02303300      -0.01166019
N        0.51201748      -1.23763610      -2.35814606       0.00429076       0.01583345       0.01944162       0.00428563       0.01586292       0.01952546
C        0.34369475       2.11412705      -1.41670688      -0.03951733       0.00014860      -0.04492261      -0.03951125       0.00015114      -0.04493405
H        0.99306155       1.80222701      -2.23862014      -0.06517703       0.01062397       0.02008858      -0.06516977       0.01061764       0.02007920
H       -0.68272688       1.82286735      -1.66131401       0.00575830       0.03902352       0.04109792       0.00574697       0.03902604       0.04109068
H        0.38290437       3.20530738      -1.34879436       0.00325004      -0.02738763      -0.00825744       0.00325254      -0.02736228      -0.00826067
13
Properties=species:S:1:pos:R:3:mp2_forces:R:3:forces:R:3 R1=CN R2=H R3=H R4=CH3 lg=Cl nu=Br rxn-id=1217 mp2_energy=-88244.40344011296 energy=-88244.39813680665 free_energy=-88244.40344022897 pbc="F F F"
C        0.57823281      -0.02324598      -0.02781549       0.08001602       0.00790617       0.02152849      -0.00217750      -0.00108179      -0.00559214
C        0.81885895       1.48618631      -0.11698723       0.02182266       0.01000990      -0.01290172       0.01011569      -0.00413188      -0.00851524
H        1.89675825       1.61472131      -0.00551247      -0.00740150      -0.03871315      -0.01934256       0.01452873      -0.01645156      -0.03135513
Cl      -1.04670731      -0.36314094       0.72371544      -0.04988319       0.00787559      -0.02442640      -0.01014096       0.01428838      -0.01556278
Br       3.90760160      -0.10640453      -0.48619664      -0.01661011       0.00605030       0.07965451       0.03164840       0.00261222       0.05477626
H        1.32546104      -0.48620723       0.61545394       0.03488634      -0.00621489      -0.05474626      -0.00947112      -0.00467953       0.00163166
H        0.32213137       1.94710819       0.74151446       0.03678654      -0.00213726      -0.00561877       0.03382302       0.00011684       0.00347624
C        0.58394028      -0.70228183      -1.32121039      -0.00822148      -0.02301856      -0.01159537       0.00292311       0.00329604       0.00044810
N        0.46541928      -1.24025561      -2.35839355       0.00429076       0.01583345       0.01944162       0.01046665       0.00635461      -0.01523207
C        0.35795622       2.11500390      -1.42438219      -0.03951733       0.00014860      -0.04492261      -0.01538967      -0.00069702       0.00218024
H        1.02590106       1.80766612      -2.23124458      -0.06517703       0.01062397       0.02008858      -0.04037752      -0.00906092      -0.01601540
H       -0.66170234       1.82404139      -1.69003272       0.00575830       0.03902352       0.04109792      -0.02607087       0.01074334       0.02889182
H        0.39409271       3.20535419      -1.35331154       0.00325004      -0.02738763      -0.00825744       0.00012206      -0.00130873       0.00086843
13
Properties=species:S:1:pos:R:3:mp2_forces:R:3:forces:R:3 R1=CN R2=H R3=H R4=CH3 lg=Cl nu=Br rxn-id=1217 mp2_energy=-88244.40344011296 energy=-88244.38574209224 free_energy=-88244.40344022897 pbc="F F F"
C        0.57953026      -0.02448096      -0.02252180       0.08001602       0.00790617       0.02152849      -0.00304287      -0.00201126      -0.00581239
C        0.80580489       1.48904294      -0.10839920       0.02182266       0.01000990      -0.01290172       0.01033500      -0.00445330      -0.00749374
H        1.87843931       1.63144161       0.03125954      -0.00740150      -0.03871315      -0.01934256       0.01571122      -0.01770020      -0.03057055
Cl      -1.03013439      -0.38370864       0.75348630      -0.04988319       0.00787559      -0.02442640      -0.01225609       0.01451412      -0.01581517
Br       3.88554066      -0.09898433      -0.53335900      -0.01661011       0.00605030       0.07965451       0.03417114       0.00860630       0.05217215
H        1.34059417      -0.48390029       0.60670289       0.03488634      -0.00621489      -0.05474626      -0.01122288      -0.00629727       0.00331963
H        0.27998514       1.94697812       0.73408116       0.03678654      -0.00213726      -0.00561877       0.03364842       0.00128082       0.00469795
C        0.57078128      -0.70047401      -1.31749866      -0.00822148      -0.02301856      -0.01159537       0.00259131       0.00753005       0.00775694
N        0.43985531      -1.23921367      -2.35273219       0.00429076       0.01583345       0.01944162       0.00812085       0.00665908      -0.02224206
C        0.37691192       2.11312498      -1.42914889      -0.03951733       0.00014860      -0.04492261      -0.01473655      -0.00233104       0.00179253
H        1.07160223       1.81139539      -2.21513115      -0.06517703       0.01062397       0.02008858      -0.03901160      -0.01221093      -0.01665331
H       -0.63198193       1.81349725      -1.72446842       0.00575830       0.03902352       0.04109792      -0.02651039       0.00927635       0.02848962
H        0.40101506       3.20382690      -1.35667354       0.00325004      -0.02738763      -0.00825744       0.00220245      -0.00286274       0.00035839
13
Properties=species:S:1:pos:R:3:mp2_forces:R:3:forces:R:3 R1=CN R2=H R3=H R4=CH3 lg=Cl nu=Br rxn-id=1217 mp2_energy=-88244.40344011296 energy=-88244.37235351393 free_energy=-88244.40344022897 pbc="F F F"
C        0.58162179      -0.02576297      -0.01687322       0.08001602       0.00790617       0.02152849      -0.00562239      -0.00296489      -0.00581137
C        0.79207155       1.49199418      -0.09942003       0.02182266       0.01000990      -0.01290172       0.00902244      -0.00465046      -0.00601886
H        1.85769066       1.65023435       0.07170529      -0.00740150      -0.03871315      -0.01934256       0.01599242      -0.02055461      -0.03005262
Cl      -1.01223177      -0.40483312       0.78335180      -0.04988319       0.00787559      -0.02442640      -0.01375642       0.01317775      -0.01331424
Br       3.85670200      -0.09004983      -0.58747466      -0.01661011       0.00605030       0.07965451       0.03929835       0.01554521       0.04883107
H        1.35634969      -0.48098378       0.59831554       0.03488634      -0.00621489      -0.05474626      -0.01282273      -0.00745718       0.00332691
H        0.23422569       1.94600217       0.72419101       0.03678654      -0.00213726      -0.00561877       0.03292762       0.00363434       0.00686415
C        0.55832013      -0.69930623      -1.31295387      -0.00822148      -0.02301856      -0.01159537       0.00012079       0.01222376       0.01497334
N        0.41368209      -1.23953423      -2.34553224       0.00429076       0.01583345       0.01944162       0.00667312       0.00714923      -0.02947492
C        0.39822825       2.11106420      -1.43359478      -0.03951733       0.00014860      -0.04492261      -0.01402595      -0.00389970       0.00131447
H        1.12024238       1.81524302      -2.19667665      -0.06517703       0.01062397       0.02008858      -0.03637664      -0.01639230      -0.01581168
H       -0.59843507       1.80245384      -1.75946355       0.00575830       0.03902352       0.04109792      -0.02659895       0.00839368       0.02639355
H        0.40947652       3.20202372      -1.35997761       0.00325004      -0.02738763      -0.00825744       0.00516832      -0.00420485      -0.00121981
13
Properties=species:S:1:pos:R:3:mp2_forces:R:3:forces:R:3 R1=CN R2=H R3=H R4=CH3 lg=Cl nu=Br rxn-id=1217 mp2_energy=-88244.40344011296 energy=-88244.35572447059 free_energy=-88244.40344022897 pbc="F F F"
C        0.58848995      -0.02637412      -0.00985104       0.08001602       0.00790617       0.02152849      -0.01724099      -0.00274639      -0.00467573
C        0.77907396       1.49610067      -0.08868249       0.02182266       0.01000990      -0.01290172       0.00133974      -0.00462303      -0.00347010
H        1.83376533       1.67746040       0.12142467      -0.00740150      -0.03871315      -0.01934256       0.01339700      -0.03504426      -0.03377346
Cl      -0.99467015      -0.42447260       0.80568407      -0.04988319       0.00787559      -0.02442640      -0.01564545       0.00818637      -0.00179557
Br       3.80527974      -0.08406629      -0.66261325      -0.01661011       0.00605030       0.07965451       0.06122739       0.02351751       0.04238292
H        1.37254494      -0.47642757       0.59679872       0.03488634      -0.00621489      -0.05474626      -0.01602988      -0.00501696      -0.00308050
H        0.18119726       1.94272287       0.71020167       0.03678654      -0.00213726      -0.00561877       0.03364710       0.01259774       0.01330203
C        0.55470288      -0.69955959      -1.30599168      -0.00822148      -0.02301856      -0.01159537      -0.01071980       0.01870362       0.02191939
N        0.38934969      -1.24314975      -2.33371709       0.00429076       0.01583345       0.01944162       0.01363940       0.00820532      -0.03715243
C        0.42390194       2.10844822      -1.43679075      -0.03951733       0.00014860      -0.04492261      -0.01489265      -0.00499144       0.00121429
H        1.17424295       1.82064789      -2.17496860      -0.06517703       0.01062397       0.02008858      -0.03128274      -0.02385142      -0.00826782
H       -0.55819550       1.78766358      -1.79343822       0.00575830       0.03902352       0.04109792      -0.02650334       0.00981852       0.01878426
H        0.41826094       3.19955161      -1.36245895       0.00325004      -0.02738763      -0.00825744       0.00906423      -0.00475559      -0.00538727
13
Properties=species:S:1:pos:R:3:mp2_forces:R:3:forces:R:3 R1=CN R2=H R3=H R4=CH3 lg=Cl nu=Br rxn-id=1217 mp2_energy=-88244.40344011296 energy=-88244.32668596835 free_energy=-88244.40344022897 pbc="F F F"
C        0.61262740      -0.02483624      -0.00288022       0.08001602       0.00790617       0.02152849      -0.07649377       0.00331144       0.00569560
C        0.78371978       1.50187714      -0.07805351       0.02182266       0.01000990      -0.01290172      -0.03594264      -0.00500776       0.00538527
H        1.82198682       1.72435541       0.17037325      -0.00740150      -0.03871315      -0.01934256       0.00443880      -0.11640713      -0.05276533
Cl      -0.99689257      -0.42078439       0.77535082      -0.04988319       0.00787559      -0.02442640      -0.01729086      -0.00321817       0.02846497
Br       3.70889364      -0.09423091      -0.75994671      -0.01661011       0.00605030       0.07965451       0.16411406       0.02316910       0.01995444
H        1.37458274      -0.47484488       0.63049753       0.03488634      -0.00621489      -0.05474626      -0.01707796       0.02399459      -0.04043607
H        0.14231139       1.92910204       0.69629981       0.03678654      -0.00213726      -0.00561877       0.03854117       0.06682046       0.03695571
C        0.59196078      -0.70557759      -1.29595793      -0.00822148      -0.02301856      -0.01159537      -0.04580947       0.03327825       0.03065527
N        0.38368444      -1.25508357      -2.31320190       0.00429076       0.01583345       0.01944162       0.05458272       0.00816907      -0.04366169
C        0.44574030       2.10545708      -1.43408075      -0.03951733       0.00014860      -0.04492261      -0.02675102      -0.00560958       0.00440028
H        1.20858410       1.83089781      -2.16434121      -0.06517703       0.01062397       0.02008858      -0.02073859      -0.04225861       0.02488794
H       -0.52676165       1.76581777      -1.79852447       0.00575830       0.03902352       0.04109792      -0.03138592       0.01835953      -0.00955690
H        0.41750675       3.19639562      -1.35993767       0.00325004      -0.02738763      -0.00825744       0.00981348      -0.00460120      -0.00997948
13
Properties=species:S:1:pos:R:3:mp2_forces:R:3:forces:R:3 R1=CN R2=H R3=H R4=CH3 lg=Cl nu=Br rxn-id=1217 mp2_energy=-88244.40344011296 energy=-88244.24304570194 free_energy=-88244.40344022897 pbc="F F F"
C        0.65947897      -0.02813211      -0.00624248       0.08001602       0.00790617       0.02152849      -0.38149751      -0.01741162       0.11156160
C        0.80890455       1.50505268      -0.07747758       0.02182266       0.01000990      -0.01290172      -0.13464595      -0.02560727       0.03819697
H        1.82187779       1.79609246       0.20610342      -0.00740150      -0.03871315      -0.01934256      -0.01653679      -0.31389426      -0.06175042
Cl      -1.00055782      -0.40916558       0.74117114      -0.04988319       0.00787559      -0.02442640       0.12917451       0.03488498      -0.03606611
Br       3.59844641      -0.09333889      -0.80252073      -0.01661011       0.00605030       0.07965451       0.41248307      -0.00892709      -0.05608792
H        1.37268077      -0.49373175       0.67053066       0.03488634      -0.00621489      -0.05474626       0.01933634       0.11657165      -0.15073535
H        0.12251047       1.88836597       0.67794910       0.03678654      -0.00213726      -0.00561877       0.01945166       0.23514029       0.07335023
C        0.63005939      -0.71946885      -1.29381298      -0.00822148      -0.02301856      -0.01159537      -0.06456586       0.05194650       0.05023009
N        0.35708048      -1.26908213      -2.29703684       0.00429076       0.01583345       0.01944162       0.11321285       0.02051844      -0.01982343
C        0.46455090       2.10566934      -1.43384321      -0.03951733       0.00014860      -0.04492261      -0.04865619      -0.02141495       0.01870879
H        1.22369667       1.85207287      -2.17578514      -0.06517703       0.01062397       0.02008858      -0.00858386      -0.07564598       0.07869337
H       -0.50476025       1.74807112      -1.78751131       0.00575830       0.03902352       0.04109792      -0.04278824       0.02335123      -0.04906557
H        0.41397560       3.19614018      -1.35592700       0.00325004      -0.02738763      -0.00825744       0.00361597      -0.01951192       0.00278774
13
Properties=species:S:1:pos:R:3:mp2_forces:R:3:forces:R:3 R1=CN R2=H R3=H R4=CH3 lg=Cl nu=Br rxn-id=1217 mp2_energy=-88244.40344011296 energy=-88244.0235588513 free_energy=-88244.40344022897 pbc="F F F"
C        0.74195088      -0.02484465      -0.03088873       0.08001602       0.00790617       0.02152849      -1.25825905      -0.15963781       0.47145255
C        0.83846556       1.51043370      -0.08481867       0.02182266       0.01000990      -0.01290172      -0.21620260      -0.06601989       0.07645462
H        1.82526046       1.86481233       0.22140562      -0.00740150      -0.03871315      -0.01934256      -0.02786743      -0.41878270      -0.04678530
Cl      -1.03066875      -0.41532695       0.74902872      -0.04988319       0.00787559      -0.02442640       0.66620497       0.18884753      -0.31616412
Br       3.50552965      -0.08408465      -0.79562768      -0.01661011       0.00605030       0.07965451       0.65053071      -0.04453618      -0.15285410
H        1.36771496      -0.52097235       0.70265637       0.03488634      -0.00621489      -0.05474626       0.13549450       0.17069808      -0.25570465
H        0.11825706       1.83741086       0.66225176       0.03678654      -0.00213726      -0.00561877      -0.00520857       0.38214759       0.09381168
C        0.64331924      -0.72910633      -1.30045268      -0.00822148      -0.02301856      -0.01159537       0.02805780       0.03548497       0.04208106
N        0.33163119      -1.27616919      -2.29536167       0.00429076       0.01583345       0.01944162       0.11823719       0.03942631       0.02245305
C        0.47675946       2.10925165      -1.43742709      -0.03951733       0.00014860      -0.04492261      -0.04881373      -0.04053241       0.02818577
H        1.22855102       1.86629623      -2.19043800      -0.06517703       0.01062397       0.02008858      -0.00326588      -0.07274757       0.08226219
H       -0.49323780       1.74151348      -1.77744191       0.00575830       0.03902352       0.04109792      -0.03993001       0.01813289      -0.05845328
H        0.41441101       3.19933117      -1.35728898       0.00325004      -0.02738763      -0.00825744       0.00102209      -0.03248081       0.01326054
13
Properties=species:S:1:pos:R:3:mp2_forces:R:3:forces:R:3 R1=CN R2=H R3=H R4=CH3 lg=Cl nu=Br rxn-id=1217 mp2_energy=-88244.40344011296 energy=-88243.79782174861 free_energy=-88244.40344022897 pbc="F F F"
C        0.81996233      -0.01484232      -0.06013078       0.08001602       0.00790617       0.02152849      -1.43616670      -0.17535032       0.53896979
C        0.85202172       1.51456597      -0.08926866       0.02182266       0.01000990      -0.01290172      -0.16728952      -0.04766648       0.06150269
H        1.82709507       1.89080344       0.22460823      -0.00740150      -0.03871315      -0.01934256      -0.00822384      -0.31881352      -0.03587959
Cl      -1.07267740      -0.42602381       0.76775328      -0.04988319       0.00787559      -0.02442640       0.69892180       0.20143151      -0.33834817
Br       3.46490105      -0.07993103      -0.78725891      -0.01661011       0.00605030       0.07965451       0.57783594      -0.03494068      -0.15343482
H        1.35902280      -0.53193641       0.71837254       0.03488634      -0.00621489      -0.05474626       0.20896805       0.10821540      -0.19976286
H        0.11878260       1.81375770       0.65676939       0.03678654      -0.00213726      -0.00561877      -0.00018487       0.32314973       0.07122096
C        0.64151375      -0.73137206      -1.30314113      -0.00822148      -0.02301856      -0.01159537       0.10664053       0.02019411      -0.00200594
N        0.32449929      -1.27896308      -2.29646171       0.00429076       0.01583345       0.01944162       0.07796997       0.02102634       0.00832673
C        0.47995903       2.11146548      -1.43895291      -0.03951733       0.00014860      -0.04492261      -0.03231387      -0.03245129       0.02058638
H        1.22900536       1.87013780      -2.19514418      -0.06517703       0.01062397       0.02008858       0.00080619      -0.05222639       0.06018614
H       -0.49057915       1.73983959      -1.77335473       0.00575830       0.03902352       0.04109792      -0.02692098       0.01180009      -0.04011957
H        0.41443749       3.20104405      -1.35819340       0.00325004      -0.02738763      -0.00825744      -0.00004271      -0.02436850       0.00875825
13
Properties=species:S:1:pos:R:3:mp2_forces:R:3:forces:R:3 R1=CN R2=H R3=H R4=CH3 lg=Cl nu=Br rxn-id=1217 mp2_energy=-88244.40344011296 energy=-88243.63419897536 free_energy=-88244.40344022897 pbc="F F F"
C        0.89245473      -0.00595193      -0.08735093       0.08001602       0.00790617       0.02152849      -1.01703824      -0.10621988       0.36902924
C        0.86053782       1.51698576      -0.09211434       0.02182266       0.01000990      -0.01290172      -0.09649917      -0.01921549       0.03778700
H        1.82752810       1.90690160       0.22673666      -0.00740150      -0.03871315      -0.01934256       0.00295149      -0.18803318      -0.02333634
Cl      -1.10841902      -0.43538276       0.78423059      -0.04988319       0.00787559      -0.02442640       0.43705417       0.13533640      -0.21808266
Br       3.43539076      -0.07696245      -0.78048031      -0.01661011       0.00605030       0.07965451       0.38661024      -0.01307633      -0.11299980
H        1.34833657      -0.53772539       0.72830654       0.03488634      -0.00621489      -0.05474626       0.17572995       0.03783515      -0.10267202
H        0.11886181       1.79748201       0.65340603       0.03678654      -0.00213726      -0.00561877       0.00139424       0.20587031       0.04251084
C        0.63606358      -0.73239079      -1.30299642      -0.00822148      -0.02301856      -0.01159537       0.09640956       0.01024683      -0.02006413
N        0.32060844      -1.28036643      -2.29671855       0.00429076       0.01583345       0.01944162       0.04187650       0.00090278      -0.00694729
C        0.48176245       2.11286116      -1.43982155      -0.03951733       0.00014860      -0.04492261      -0.01723126      -0.01947309       0.01239738
H        1.22927077       1.87227700      -2.19780325      -0.06517703       0.01062397       0.02008858       0.00339906      -0.03364408       0.03874369
H       -0.48899113       1.73878120      -1.77108122       0.00575830       0.03902352       0.04109792      -0.01454658       0.00435890      -0.02055705
H        0.41453904       3.20203634      -1.35871622       0.00325004      -0.02738763      -0.00825744      -0.00010995      -0.01488832       0.00419115
13
Properties=species:S:1:pos:R:3:mp2_forces:R:3:forces:R:3 R1=CN R2=H R3=H R4=CH3 lg=Cl nu=Br rxn-id=1217 mp2_energy=-88244.40344011296 energy=-88243.55173581808 free_energy=-88244.40344022897 pbc="F F F"
C        0.96538321       0.00167982      -0.11388954       0.08001602       0.00790617       0.02152849      -0.29527817      -0.02809717       0.10372237
C        0.86755957       1.51837591      -0.09445047       0.02182266       0.01000990      -0.01290172      -0.02623477      -0.00322793       0.01462348
H        1.82737202       1.92037632       0.22880761      -0.00740150      -0.03871315      -0.01934256       0.00265383      -0.05230054      -0.00437818
Cl      -1.14041954      -0.44386841       0.79895798      -0.04988319       0.00787559      -0.02442640       0.11214628       0.05048925      -0.06923756
Br       3.40713402      -0.07435168      -0.77368331      -0.01661011       0.00605030       0.07965451       0.11060594       0.01257793      -0.04606266
H        1.33558508      -0.54091188       0.73544584       0.03488634      -0.00621489      -0.05474626       0.05369197      -0.00023930      -0.02550828
H        0.11891155       1.78279148       0.65072208       0.03678654      -0.00213726      -0.00561877       0.00160152       0.06106516       0.01553573
C        0.62917792      -0.73297240      -1.30123428      -0.00822148      -0.02301856      -0.01159537       0.02969250       0.00522787      -0.00285219
N        0.31766308      -1.28103375      -2.29623019       0.00429076       0.01583345       0.01944162       0.01197816      -0.00877064      -0.00687458
C        0.48319533       2.11390867      -1.44045340      -0.03951733       0.00014860      -0.04492261      -0.00345980      -0.00830489       0.00593439
H        1.22939185       1.87396971      -2.20004593      -0.06517703       0.01062397       0.02008858       0.00396086      -0.01647525       0.01631518
H       -0.48767947       1.73781700      -1.76922040       0.00575830       0.03902352       0.04109792      -0.00218558      -0.00490499      -0.00120077
H        0.41466929       3.20276452      -1.35912895       0.00325004      -0.02738763      -0.00825744       0.00082726      -0.00703948      -0.00001694
13
Properties=species:S:1:pos:R:3:mp2_forces:R:3:forces:R:3 R1=CN R2=H R3=H R4=CH3 lg=Cl nu=Br rxn-id=1217 mp2_energy=-88244.40344011296 energy=-88243.56406054007 free_energy=-88244.40344022897 pbc="F F F"
C        1.03937445       0.00793318      -0.13977615       0.08001602       0.00790617       0.02152849       0.48414778       0.04059689      -0.17119905
C        0.87428373       1.51864917      -0.09676850       0.02182266       0.01000990      -0.01290172       0.04533711       0.00192990      -0.00983315
H        1.82677747       1.93279061       0.23134222      -0.00740150      -0.03871315      -0.01934256      -0.00229541       0.08082926       0.02065100
Cl      -1.16888508      -0.45163187       0.81200590      -0.04988319       0.00787559      -0.02442640      -0.19576023      -0.03214390       0.07097139
Br       3.37648493      -0.07191390      -0.76619727      -0.01661011       0.00605030       0.07965451      -0.20847877       0.03769010       0.03258492
H        1.32086697      -0.54092145       0.73937484       0.03488634      -0.00621489      -0.05474626      -0.09731221      -0.00671827       0.02227943
H        0.11940299       1.76771996       0.64843775       0.03678654      -0.00213726      -0.00561877       0.00661313      -0.09687937      -0.00882628
C        0.62217882      -0.73314536      -1.29804388      -0.00822148      -0.02301856      -0.01159537      -0.04304700       0.00320643       0.02889996
N        0.31507682      -1.28077493      -2.29462773       0.00429076       0.01583345       0.01944162      -0.01533070      -0.00831722       0.00650174
C        0.48455661       2.11454440      -1.44089773      -0.03951733       0.00014860      -0.04492261       0.01034808      -0.00083416       0.00108915
H        1.22937986       1.87538911      -2.20224532      -0.06517703       0.01062397       0.02008858       0.00300228      -0.00121754      -0.00709955
H       -0.48640341       1.73673342      -1.76754685       0.00575830       0.03902352       0.04109792       0.01043749      -0.01601609       0.01756031
H        0.41484977       3.20317297      -1.35946024       0.00325004      -0.02738763      -0.00825744       0.00233846      -0.00212602      -0.00357987
13
Properties=species:S:1:pos:R:3:mp2_forces:R:3:forces:R:3 R1=CN R2=H R3=H R4=CH3 lg=Cl nu=Br rxn-id=1217 mp2_energy=-88244.40344011296 energy=-88243.66060679682 free_energy=-88244.40344022897 pbc="F F F"
C        1.11235067       0.01280209      -0.16427880       0.08001602       0.00790617       0.02152849       1.02039325       0.06797540      -0.34400334
C        0.88225536       1.51815386      -0.09959086       0.02182266       0.01000990      -0.01290172       0.11256585      -0.00679108      -0.03408769
H        1.82614795       1.94654876       0.23450940      -0.00740150      -0.03871315      -0.01934256      -0.00697702       0.19163937       0.04774450
Cl      -1.19728822      -0.45962475       0.82523693      -0.04988319       0.00787559      -0.02442640      -0.40654289      -0.09238616       0.17047606
Br       3.34375814      -0.06956281      -0.75824905      -0.01661011       0.00605030       0.07965451      -0.46567352       0.05392546       0.09559808
H        1.30520691      -0.53823082       0.74019420       0.03488634      -0.00621489      -0.05474626      -0.21941672       0.03093181       0.00764602
H        0.12075017       1.75006212       0.64576280       0.03678654      -0.00213726      -0.00561877       0.02268865      -0.24473472      -0.03079937
C        0.61681138      -0.73270667      -1.29429550      -0.00822148      -0.02301856      -0.01159537      -0.07244644       0.00923943       0.05802015
N        0.31214800      -1.27985172      -2.29186622       0.00429076       0.01583345       0.01944162      -0.03802025       0.00383399       0.03585306
C        0.48628276       2.11500864      -1.44137568      -0.03951733       0.00014860      -0.04492261       0.02497954       0.00146534      -0.00253551
H        1.22929824       1.87704782      -2.20500396      -0.06517703       0.01062397       0.02008858       0.00119900       0.01259842      -0.03123806
H       -0.48483259       1.73543102      -1.76566263       0.00575830       0.03902352       0.04109792       0.02336709      -0.02702126       0.03319722
H        0.41505516       3.20346777      -1.35978359       0.00325004      -0.02738763      -0.00825744       0.00388347      -0.00067600      -0.00587114
13
Properties=species:S:1:pos:R:3:mp2_forces:R:3:forces:R:3 R1=CN R2=H R3=H R4=CH3 lg=Cl nu=Br rxn-id=1217 mp2_energy=-88244.40344011296 energy=-88243.82138278449 free_energy=-88244.40344022897 pbc="F F F"
C        1.19078491       0.01720689      -0.19000456       0.08001602       0.00790617       0.02152849       1.07489366       0.06083658      -0.35378318
C        0.89452674       1.51684245      -0.10401891       0.02182266       0.01000990      -0.01290172       0.16764714      -0.01804723      -0.05529658
H        1.82555723       1.96603848       0.23922667      -0.00740150      -0.03871315      -0.01934256      -0.00799682       0.26531216       0.06973591
Cl      -1.23250183      -0.46998151       0.84235987      -0.04988319       0.00787559      -0.02442640      -0.49203565      -0.12394915       0.22496983