14
Properties=species:S:1:pos:R:3:mp2_forces:R:3:forces:R:3 R1=CN R2=NH2 R3=H R4=NH2 lg=F nu=Cl rxn-id=1615 mp2_energy=-22884.018922309762 energy=-22884.01892042638 free_energy=-22884.01892042638 pbc="F F F"
C        0.62383721      -0.01991541       0.00249400      -0.00644232      -0.00962396      -0.00903434      -0.00643850      -0.00961866      -0.00902916
C        1.07895650       1.42062909      -0.08625900       0.00956757      -0.00867081      -0.00753538       0.00956331      -0.00866261      -0.00755395
H        2.16391023       1.41539185      -0.21019565       0.01427820      -0.01873923      -0.02343195       0.01427942      -0.01873800      -0.02342973
F       -0.78176253      -0.00911406       0.15264811      -0.01114542      -0.00424726       0.01948301      -0.01115178      -0.00425062       0.01949487
Cl       4.28698624      -0.20887050       0.32348877       0.02207564       0.04881400       0.08250745       0.02207434       0.04881408       0.08250758
H        0.83996994       1.85670798       0.89388873       0.02458522      -0.00184306      -0.00171383       0.02458273      -0.00184130      -0.00170649
C        0.84385549      -0.74233857      -1.27998545      -0.04080410       0.01390272       0.02152364      -0.04080841       0.01387653       0.02146729
N        1.00254752      -1.39219887      -2.24448445      -0.03485593      -0.01824388      -0.04095192      -0.03483957      -0.01822491      -0.04090774
N        1.18738298      -0.65052010       1.14367880       0.00622388      -0.01228547      -0.02195402       0.00621817      -0.01228302      -0.02195681
H        2.21111127      -0.55311061       1.08212494       0.00386377       0.01492513       0.00702423       0.00386074       0.01492634       0.00702404
H        0.97444962      -1.64145972       1.12543420       0.01507020      -0.01147706      -0.02930024       0.01506999      -0.01147727      -0.02929966
N        0.43374444       2.07316176      -1.22052946      -0.00917283      -0.00533609      -0.00126603      -0.00916791      -0.00533102      -0.00124566
H        0.81962391       3.00094528      -1.33673769       0.00853678      -0.01500741      -0.01709978       0.00853894      -0.01502221      -0.01711066
H       -0.55510377       2.16664090      -1.02715504      -0.00178064       0.02783238       0.02174916      -0.00178146       0.02783266       0.02174610
14
Properties=species:S:1:pos:R:3:mp2_forces:R:3:forces:R:3 R1=CN R2=NH2 R3=H R4=NH2 lg=F nu=Cl rxn-id=1615 mp2_energy=-22884.018922309762 energy=-22883.998191281156 free_energy=-22884.01892042638 pbc="F F F"
C        0.63395451      -0.01044275       0.00749547      -0.00644232      -0.00962396      -0.00903434      -0.01317615      -0.00698036      -0.00384075
C        1.09463966       1.42697749      -0.08208792       0.00956757      -0.00867081      -0.00753538      -0.00493960      -0.00932130      -0.00722906
H        2.17970267       1.41487371      -0.20405858       0.01427820      -0.01873923      -0.02343195      -0.00607743      -0.01694754      -0.01764518
F       -0.77299087       0.00125761       0.15042604      -0.01114542      -0.00424726       0.01948301      -0.01254509       0.00155481       0.01008370
Cl       4.27463158      -0.20911013       0.27339829       0.02207564       0.04881400       0.08250745       0.01940284       0.01589011       0.07418524
H        0.85539562       1.86916618       0.89589445       0.02458522      -0.00184306      -0.00171383       0.01006684      -0.00864576      -0.00360948
C        0.85890763      -0.73046797      -1.27643793      -0.04080410       0.01390272       0.02152364      -0.03102786      -0.00548085      -0.00524403
N        1.01751960      -1.37076722      -2.24761720      -0.03485593      -0.01824388      -0.04095192      -0.03364653      -0.00961822      -0.00721646
N        1.18366571      -0.64326482       1.15438812       0.00622388      -0.01228547      -0.02195402       0.00090791      -0.00775562      -0.01287996
H        2.20973181      -0.59236445       1.07994981       0.00386377       0.01492513       0.00702423       0.00156272       0.04524090       0.00669113
H        0.91544409      -1.62083060       1.15931607       0.01507020      -0.01147706      -0.02930024       0.05697529      -0.02489804      -0.03877256
N        0.45543006       2.07072024      -1.22553577      -0.00917283      -0.00533609      -0.00126603      -0.00969804      -0.00080586       0.00091481
H        0.76899774       3.03018567      -1.29086250       0.00853678      -0.01500741      -0.01709978       0.02937320      -0.01338072      -0.02119215
H       -0.54552076       2.08001604      -1.07585754      -0.00178064       0.02783238       0.02174916      -0.00717811       0.04114846       0.02575475
14
Properties=species:S:1:pos:R:3:mp2_forces:R:3:forces:R:3 R1=CN R2=NH2 R3=H R4=NH2 lg=F nu=Cl rxn-id=1615 mp2_energy=-22884.018922309762 energy=-22883.968546637087 free_energy=-22884.01892042638 pbc="F F F"
C        0.65023404      -0.00183750       0.01116408      -0.00644232      -0.00962396      -0.00903434      -0.01920147      -0.00799499      -0.00377111
C        1.09878131       1.43952576      -0.07365401       0.00956757      -0.00867081      -0.00753538      -0.00851538      -0.01078867      -0.00737213
H        2.18527608       1.43750278      -0.18248243       0.01427820      -0.01873923      -0.02343195      -0.00934943      -0.02134281      -0.01806074
F       -0.75835387      -0.00229963       0.13345727      -0.01114542      -0.00424726       0.01948301      -0.01904719       0.00203702       0.01180456
Cl       4.24566569      -0.25256833       0.17701912       0.02207564       0.04881400       0.08250745       0.02608099       0.00544653       0.08543882
H        0.84005394       1.87961578       0.90023015       0.02458522      -0.00184306      -0.00171383       0.00769360      -0.00851576      -0.00369913
C        0.90045165      -0.72380696      -1.26736790      -0.04080410       0.01390272       0.02152364      -0.03890719      -0.00539188      -0.00397847
N        1.06322439      -1.36218290      -2.23908216      -0.03485593      -0.01824388      -0.04095192      -0.03528897      -0.01328959      -0.00679870
N        1.18150176      -0.62937540       1.17187070       0.00622388      -0.01228547      -0.02195402      -0.00139681      -0.00719107      -0.01438163
H        2.20658749      -0.63319851       1.07846121       0.00386377       0.01492513       0.00702423       0.00422850       0.06890046       0.00834118
H        0.85867817      -1.58990627       1.20401023       0.01507020      -0.01147706      -0.02930024       0.07765552      -0.03819320      -0.05177060
N        0.46670505       2.07483381      -1.22654276      -0.00917283      -0.00533609      -0.00126603      -0.01108905      -0.00089472       0.00040081
H        0.72851464       3.05152460      -1.25811892       0.00853678      -0.01500741      -0.01709978       0.03899391      -0.01334426      -0.02476098
H       -0.53781129       2.02812179      -1.11055377      -0.00178064       0.02783238       0.02174916      -0.01185702       0.05056295       0.02860813
14
Properties=species:S:1:pos:R:3:mp2_forces:R:3:forces:R:3 R1=CN R2=NH2 R3=H R4=NH2 lg=F nu=Cl rxn-id=1615 mp2_energy=-22884.018922309762 energy=-22883.929217672237 free_energy=-22884.01892042638 pbc="F F F"
C        0.67119549       0.00608867       0.01403600      -0.00644232      -0.00962396      -0.00903434      -0.02849120      -0.00856570      -0.00281136
C        1.10411058       1.45247713      -0.06523643       0.00956757      -0.00867081      -0.00753538      -0.01243954      -0.01262745      -0.00740206
H        2.19154533       1.46410019      -0.16152981       0.01427820      -0.01873923      -0.02343195      -0.01260448      -0.02961229      -0.01819819
F       -0.73889497      -0.00808595       0.11425887      -0.01114542      -0.00424726       0.01948301      -0.02866262       0.00375775       0.01497260
Cl       4.20856385      -0.28775284       0.07600054       0.02207564       0.04881400       0.08250745       0.03509326      -0.00870076       0.09698539
H        0.82553840       1.88824061       0.90500705       0.02458522      -0.00184306      -0.00171383       0.00578096      -0.00693131      -0.00416710
C        0.94771921      -0.71758594      -1.25833749      -0.04080410       0.01390272       0.02152364      -0.04990737      -0.00507807      -0.00208084
N        1.10852868      -1.35382776      -2.23176147      -0.03485593      -0.01824388      -0.04095192      -0.03461199      -0.01588487      -0.00511121
N        1.18124232      -0.61681068       1.18952508       0.00622388      -0.01228547      -0.02195402      -0.00583770      -0.00553116      -0.01538759
H        2.20101529      -0.68693811       1.07861452       0.00386377       0.01492513       0.00702423       0.00974443       0.10170716       0.00889326
H        0.79317187      -1.55123151       1.25364015       0.01507020      -0.01147706      -0.02930024       0.10114687      -0.05903415      -0.06746725
N        0.47640667       2.07911750      -1.22609516      -0.00917283      -0.00533609      -0.00126603      -0.01117100      -0.00048644      -0.00059636
H        0.68680814       3.06877330      -1.22881635       0.00853678      -0.01500741      -0.01709978       0.04785768      -0.01166072      -0.02629187
H       -0.52744183       1.97938440      -1.14089468      -0.00178064       0.02783238       0.02174916      -0.01589728       0.05864799       0.02866258
14
Properties=species:S:1:pos:R:3:mp2_forces:R:3:forces:R:3 R1=CN R2=NH2 R3=H R4=NH2 lg=F nu=Cl rxn-id=1615 mp2_energy=-22884.018922309762 energy=-22883.878527503883 free_energy=-22884.01892042638 pbc="F F F"
C        0.69784437       0.01280028       0.01581315      -0.00644232      -0.00962396      -0.00903434      -0.04277988      -0.00907131      -0.00096946
C        1.11014318       1.46565227      -0.05647916       0.00956757      -0.00867081      -0.00753538      -0.01692374      -0.01550475      -0.00812498
H        2.19778629       1.49693709      -0.14059100       0.01427820      -0.01873923      -0.02343195      -0.01561314      -0.04495000      -0.01933935
F       -0.71381235      -0.01619161       0.09286210      -0.01114542      -0.00424726       0.01948301      -0.04263345       0.00625364       0.02071872
Cl       4.16424783      -0.31041805      -0.02535347       0.02207564       0.04881400       0.08250745       0.05053411      -0.02508298       0.10864255
H        0.81043655       1.89413875       0.91066041       0.02458522      -0.00184306      -0.00171383       0.00551594      -0.00361205      -0.00569002
C        1.00002265      -0.71198626      -1.25003651      -0.04080410       0.01390272       0.02152364      -0.06578519      -0.00511141       0.00009980
N        1.14862080      -1.34764663      -2.22583004      -0.03485593      -0.01824388      -0.04095192      -0.02937819      -0.01610682      -0.00342087
N        1.18368791      -0.60761146       1.20621599       0.00622388      -0.01228547      -0.02195402      -0.01266708      -0.00214622      -0.01572485
H        2.19187225      -0.75469735       1.08201642       0.00386377       0.01492513       0.00702423       0.01968259       0.14288692       0.00641421
H        0.72221414      -1.50482016       1.30416009       0.01507020      -0.01147706      -0.02930024       0.12378609      -0.08728891      -0.08126302
N        0.48329321       2.08182398      -1.22412719      -0.00917283      -0.00533609      -0.00126603      -0.00984346       0.00161594      -0.00229271
H        0.65014029       3.07965838      -1.20877319       0.00853678      -0.01500741      -0.01709978       0.05441138      -0.00791435      -0.02334993
H       -0.51698808       1.93830978      -1.16212679      -0.00178064       0.02783238       0.02174916      -0.01830599       0.06603231       0.02429994
14
Properties=species:S:1:pos:R:3:mp2_forces:R:3:forces:R:3 R1=CN R2=NH2 R3=H R4=NH2 lg=F nu=Cl rxn-id=1615 mp2_energy=-22884.018922309762 energy=-22883.818114687245 free_energy=-22884.01892042638 pbc="F F F"
C        0.72961311       0.01831353       0.01665717      -0.00644232      -0.00962396      -0.00903434      -0.06290288      -0.01018985       0.00176873
C        1.11664043       1.47882517      -0.04687605       0.00956757      -0.00867081      -0.00753538      -0.02289909      -0.02024595      -0.01033455
H        2.20341249       1.53756199      -0.11816797       0.01427820      -0.01873923      -0.02343195      -0.01878345      -0.07139013      -0.02333305
F       -0.68399407      -0.02441225       0.07083446      -0.01114542      -0.00424726       0.01948301      -0.06122066       0.00654490       0.03002175
Cl       4.11693444      -0.31824977      -0.11745022       0.02207564       0.04881400       0.08250745       0.07229316      -0.04100804       0.11647061
H        0.79322390       1.89708409       0.91721800       0.02458522      -0.00184306      -0.00171383       0.00851601       0.00152881      -0.00848024
C        1.05317491      -0.70670872      -1.24330262      -0.04080410       0.01390272       0.02152364      -0.08597795      -0.00576490       0.00219834
N        1.17451864      -1.34554106      -2.22095768      -0.03485593      -0.01824388      -0.04095192      -0.01390444      -0.01270696      -0.00288310
N        1.18913594      -0.60388072       1.22017729       0.00622388      -0.01228547      -0.02195402      -0.02095880       0.00371573      -0.01521485
H        2.17898533      -0.83160392       1.08925629       0.00386377       0.01492513       0.00702423       0.03544567       0.18737616      -0.00053762
H        0.65452571      -1.45544571       1.34699558       0.01507020      -0.01147706      -0.02930024       0.13875262      -0.11780826      -0.08564192
N        0.48765084       2.08075534      -1.22124130      -0.00917283      -0.00533609      -0.00126603      -0.00756369       0.00658162      -0.00458557
H        0.62400543       3.08303678      -1.20278324       0.00853678      -0.01500741      -0.01709978       0.05883520      -0.00123983      -0.01346971
H       -0.50831805       1.90621428      -1.17194891      -0.00178064       0.02783238       0.02174916      -0.01963169       0.07460670       0.01402117
14
Properties=species:S:1:pos:R:3:mp2_forces:R:3:forces:R:3 R1=CN R2=NH2 R3=H R4=NH2 lg=F nu=Cl rxn-id=1615 mp2_energy=-22884.018922309762 energy=-22883.755236307235 free_energy=-22884.01892042638 pbc="F F F"
C        0.76082713       0.02300751       0.01642754      -0.00644232      -0.00962396      -0.00903434      -0.08566501      -0.01175577       0.00540021
C        1.12443304       1.49034814      -0.03816874       0.00956757      -0.00867081      -0.00753538      -0.03017223      -0.02616688      -0.01386413
H        2.20930853       1.57842675      -0.09658025       0.01427820      -0.01873923      -0.02343195      -0.02171841      -0.10565231      -0.03103419
F       -0.65510167      -0.02801941       0.05416786      -0.01114542      -0.00424726       0.01948301      -0.08057744       0.00239832       0.04152634
Cl       4.08086573      -0.30792806      -0.18066893       0.02207564       0.04881400       0.08250745       0.09230092      -0.05624720       0.11361283
H        0.77804003       1.89757011       0.92291340       0.02458522      -0.00184306      -0.00171383       0.01356668       0.00794823      -0.01205137
C        1.09513855      -0.70173280      -1.24022094      -0.04080410       0.01390272       0.02152364      -0.10449421      -0.00725708       0.00537328
N        1.17747476      -1.34706832      -2.21795998      -0.03485593      -0.01824388      -0.04095192       0.01319487      -0.00581234      -0.00343096
N        1.19796471      -0.60586055       1.22785834       0.00622388      -0.01228547      -0.02195402      -0.03046164       0.01199984      -0.01179792
H        2.16418829      -0.90951342       1.09274688       0.00386377       0.01492513       0.00702423       0.05729571       0.23007857      -0.00564254
H        0.59854440      -1.40860986       1.37834782       0.01507020      -0.01147706      -0.02930024       0.14155768      -0.14789947      -0.08096832
N        0.49226550       2.07657505      -1.21896159      -0.00917283      -0.00533609      -0.00126603      -0.00540770       0.01382183      -0.00719592
H        0.60472870       3.08165121      -1.20472239       0.00853678      -0.01500741      -0.01709978       0.06272344       0.00857189       0.00053275
H       -0.49916866       1.87710267      -1.17676821      -0.00178064       0.02783238       0.02174916      -0.02214265       0.08597235      -0.00046005
14
Properties=species:S:1:pos:R:3:mp2_forces:R:3:forces:R:3 R1=CN R2=NH2 R3=H R4=NH2 lg=F nu=Cl rxn-id=1615 mp2_energy=-22884.018922309762 energy=-22883.68346877263 free_energy=-22884.01892042638 pbc="F F F"
C        0.79004013       0.02695615       0.01435514      -0.00644232      -0.00962396      -0.00903434      -0.10820934      -0.01090734       0.01027355
C        1.13441180       1.49970053      -0.03221150       0.00956757      -0.00867081      -0.00753538      -0.03829774      -0.03001651      -0.01664863
H        2.21676264       1.61427306      -0.07858344       0.01427820      -0.01873923      -0.02343195      -0.02280923      -0.14174244      -0.04013980
F       -0.62874501      -0.02743729       0.04413713      -0.01114542      -0.00424726       0.01948301      -0.09625739      -0.00438510       0.04807435
Cl       4.05690825      -0.28401187      -0.21978445       0.02207564       0.04881400       0.08250745       0.11075278      -0.07287649       0.09887400
H        0.76834129       1.89541646       0.92658651       0.02458522      -0.00184306      -0.00171383       0.01750417       0.01863409      -0.01441981
C        1.12602271      -0.69727056      -1.24141876      -0.04080410       0.01390272       0.02152364      -0.11395386      -0.00718426       0.01291967
N        1.16865742      -1.34780233      -2.21861739      -0.03485593      -0.01824388      -0.04095192       0.04174841       0.00149967      -0.00324061
N        1.21176754      -0.61032388       1.22931047       0.00622388      -0.01228547      -0.02195402      -0.04325365       0.02259946      -0.00294888
H        2.14440341      -0.99604616       1.08612723       0.00386377       0.01492513       0.00702423       0.08703823       0.26889404      -0.00521353
H        0.54783165      -1.35225481       1.41322494       0.01507020      -0.01147706      -0.02930024       0.13197344      -0.18393143      -0.07416387
N        0.49908776       2.07286196      -1.21784754      -0.00917283      -0.00533609      -0.00126603      -0.00520116       0.02162571      -0.00964578
H        0.57955364       3.08077230      -1.20045348       0.00853678      -0.01500741      -0.01709978       0.06627014       0.01848245       0.01178356
H       -0.48553418       1.84111546      -1.18641402      -0.00178064       0.02783238       0.02174916      -0.02730481       0.09930814      -0.01550423
14
Properties=species:S:1:pos:R:3:mp2_forces:R:3:forces:R:3 R1=CN R2=NH2 R3=H R4=NH2 lg=F nu=Cl rxn-id=1615 mp2_energy=-22884.018922309762 energy=-22883.55933256308 free_energy=-22884.01892042638 pbc="F F F"
C        0.83509247       0.03015768       0.00780293      -0.00644232      -0.00962396      -0.00903434      -0.14969368      -0.00550395       0.02167999
C        1.15196515       1.51072548      -0.02741623       0.00956757      -0.00867081      -0.00753538      -0.05836048      -0.03168524      -0.01426074
H        2.22819513       1.66983511      -0.05898042       0.01427820      -0.01873923      -0.02343195      -0.02149656      -0.21633025      -0.04966480
F       -0.58985882      -0.02430162       0.03182170      -0.01114542      -0.00424726       0.01948301      -0.11906401      -0.01851935       0.03968672
Cl       4.01569475      -0.24535768      -0.25484576       0.02207564       0.04881400       0.08250745       0.16526244      -0.09438667       0.06254038
H        0.75980045       1.88445143       0.93000794       0.02458522      -0.00184306      -0.00171383       0.02032995       0.05403716      -0.01232016
C        1.16550974      -0.69379584      -1.24832392      -0.04080410       0.01390272       0.02152364      -0.10744054       0.00251298       0.02981960
N        1.15014013      -1.34774776      -2.22480159      -0.03485593      -0.01824388      -0.04095192       0.08008807       0.01317838       0.00465852
N        1.23715708      -0.61846102       1.22609782       0.00622388      -0.01228547      -0.02195402      -0.06425835       0.03313704       0.00946111
H        2.10434838      -1.12593696       1.07471113       0.00386377       0.01492513       0.00702423       0.12311098       0.30311611      -0.01925736
H        0.48839246      -1.25553956       1.46452452       0.01507020      -0.01147706      -0.02930024       0.11280611      -0.22980097      -0.03830534
N        0.50804732       2.06766498      -1.21615095      -0.00917283      -0.00533609      -0.00126603      -0.00901700       0.03510028      -0.01113492
H        0.53860681       3.07787326      -1.18825677       0.00853678      -0.01500741      -0.01709978       0.06640895       0.03431363       0.02077331
H       -0.46358201       1.78638153      -1.19777959      -0.00178064       0.02783238       0.02174916      -0.03867588       0.12083085      -0.04367633
14
Properties=species:S:1:pos:R:3:mp2_forces:R:3:forces:R:3 R1=CN R2=NH2 R3=H R4=NH2 lg=F nu=Cl rxn-id=1615 mp2_energy=-22884.018922309762 energy=-22883.373662252674 free_energy=-22884.01892042638 pbc="F F F"
C        0.90158641       0.03184822      -0.00286726      -0.00644232      -0.00962396      -0.00903434      -0.27455662      -0.00096949       0.04104515
C        1.17779015       1.52384861      -0.02271602       0.00956757      -0.00867081      -0.00753538      -0.10226326      -0.03752965      -0.00438456
H        2.23803715       1.76396026      -0.03823640       0.01427820      -0.01873923      -0.02343195      -0.01220386      -0.36133972      -0.05736428
F       -0.53669792      -0.01674448       0.01468044      -0.01114542      -0.00424726       0.01948301      -0.14339840      -0.04429547       0.01563091
Cl       3.93475729      -0.20592550      -0.27801654       0.02207564       0.04881400       0.08250745       0.33145365      -0.12010663       0.00254082
H        0.75053140       1.85807554       0.93438517       0.02458522      -0.00184306      -0.00171383       0.01996355       0.13516946      -0.00179159
C        1.21182558      -0.69479952      -1.26023131      -0.04080410       0.01390272       0.02152364      -0.06994835       0.02620499       0.05335852
N        1.11315891      -1.35339709      -2.23009531      -0.03485593      -0.01824388      -0.04095192       0.13635015       0.03025358       0.01835946
N        1.26756968      -0.63032720       1.22157318       0.00622388      -0.01228547      -0.02195402      -0.10665276       0.03748089       0.01460349
H        2.05202204      -1.25725107       1.08279012       0.00386377       0.01492513       0.00702423       0.13953682       0.33072404      -0.09794255
H        0.44266777      -1.15252951       1.48366848       0.01507020      -0.01147706      -0.02930024       0.10088647      -0.29147501       0.10689533
N        0.51362605       2.05360767      -1.21186478      -0.00917283      -0.00533609      -0.00126603      -0.01713790       0.06611481      -0.01512933
H        0.50693241       3.06374393      -1.18982874       0.00853678      -0.01500741      -0.01709978       0.05538498       0.06987859       0.02717546
H       -0.44429787       1.73183914      -1.18483022      -0.00178064       0.02783238       0.02174916      -0.05741447       0.15988963      -0.10299684
14
Properties=species:S:1:pos:R:3:mp2_forces:R:3:forces:R:3 R1=CN R2=NH2 R3=H R4=NH2 lg=F nu=Cl rxn-id=1615 mp2_energy=-22884.018922309762 energy=-22883.11012599424 free_energy=-22884.01892042638 pbc="F F F"
C        0.97929136       0.03298202      -0.01397813      -0.00644232      -0.00962396      -0.00903434      -0.78451879      -0.00170911       0.06288503
C        1.20573926       1.53512684      -0.02018464       0.00956757      -0.00867081      -0.00753538      -0.14626499      -0.04701118       0.00830115
H        2.24076540       1.86620031      -0.01842116       0.01427820      -0.01873923      -0.02343195       0.01737381      -0.49344603      -0.06111888
F       -0.49545234      -0.00389592       0.01148232      -0.01114542      -0.00424726       0.01948301       0.06560186      -0.04965461      -0.03413742
Cl       3.83892221      -0.17358085      -0.28421365       0.02207564       0.04881400       0.08250745       0.63756550      -0.15110237      -0.07266542
H        0.74229406       1.82011178       0.93584956       0.02458522      -0.00184306      -0.00171383       0.02604051       0.24176853       0.02187687
C        1.23265848      -0.70048459      -1.27423234      -0.04080410       0.01390272       0.02152364       0.06588101       0.03195593       0.04771161
N        1.07488190      -1.36348684      -2.23435230      -0.03485593      -0.01824388      -0.04095192       0.15705148       0.05296501       0.04525304
N        1.29808196      -0.63889515       1.21835393       0.00622388      -0.01228547      -0.02195402      -0.19454404       0.03691128      -0.00446788
H        2.01159459      -1.35012935       1.11105505       0.00386377       0.01492513       0.00702423       0.13220224       0.36481752      -0.22575119
H        0.41535202      -1.07098680       1.45054271       0.01507020      -0.01147706      -0.02930024       0.10449433      -0.42713050       0.40128674
N        0.51983124       2.03438066      -1.20791627      -0.00917283      -0.00533609      -0.00126603      -0.02645937       0.10972204      -0.01902017
H        0.49216846       3.04349404      -1.19726380       0.00853678      -0.01500741      -0.01709978       0.02354913       0.11152914       0.01352879
H       -0.42661952       1.68511287      -1.15831048      -0.00178064       0.02783238       0.02174916      -0.07797268       0.22038436      -0.18368228
14
Properties=species:S:1:pos:R:3:mp2_forces:R:3:forces:R:3 R1=CN R2=NH2 R3=H R4=NH2 lg=F nu=Cl rxn-id=1615 mp2_energy=-22884.018922309762 energy=-22882.68633658319 free_energy=-22884.01892042638 pbc="F F F"
C        1.09422273       0.03305759      -0.02313617      -0.00644232      -0.00962396      -0.00903434      -1.88237335       0.01017905       0.09415366
C        1.22729525       1.54205489      -0.02150876       0.00956757      -0.00867081      -0.00753538      -0.12955421      -0.02577297       0.01864744
H        2.23816650       1.93946522      -0.00762296       0.01427820      -0.01873923      -0.02343195       0.04631097      -0.45374668      -0.04514588
F       -0.50484278       0.00335009       0.01625621      -0.01114542      -0.00424726       0.01948301       0.75486351      -0.00920805      -0.04162378
Cl       3.74250721      -0.15107182      -0.27479505       0.02207564       0.04881400       0.08250745       0.92216710      -0.15967337      -0.13698587
H        0.73762574       1.78424067       0.93204412       0.02458522      -0.00184306      -0.00171383       0.03597841       0.27039898       0.05382001
C        1.22264480      -0.70681935      -1.28325408      -0.04080410       0.01390272       0.02152364       0.28305629       0.01735624      -0.00340098
N        1.05192582      -1.37075172      -2.23965207      -0.03485593      -0.01824388      -0.04095192       0.10556008       0.01905159       0.01163654
N        1.32682192      -0.64455336       1.21891827       0.00622388      -0.01228547      -0.02195402      -0.23150932       0.05126022      -0.03957385
H        1.99274438      -1.40369527       1.14444908       0.00386377       0.01492513       0.00702423       0.09414224       0.31896368      -0.25766545
H        0.40084071      -1.00866795       1.39356280       0.01507020      -0.01147706      -0.02930024       0.10136069      -0.48974310       0.57698552
N        0.52473353       2.01894361      -1.20558382      -0.00917283      -0.00533609      -0.00126603      -0.02445063       0.11640850      -0.01291954
H        0.48870694       3.02787446      -1.19877411       0.00853678      -0.01500741      -0.01709978      -0.01173576       0.10332038      -0.00927181
H       -0.41388369       1.65252197      -1.13249264      -0.00178064       0.02783238       0.02174916      -0.06381602       0.23120553      -0.20865601
14
Properties=species:S:1:pos:R:3:mp2_forces:R:3:forces:R:3 R1=CN R2=NH2 R3=H R4=NH2 lg=F nu=Cl rxn-id=1615 mp2_energy=-22884.018922309762 energy=-22882.315827902683 free_energy=-22884.01892042638 pbc="F F F"
C        1.20574209       0.03245873      -0.02863356      -0.00644232      -0.00962396      -0.00903434      -1.70175939       0.02199578       0.09053043
C        1.23490912       1.54364298      -0.02239258       0.00956757      -0.00867081      -0.00753538      -0.07103599       0.01725939       0.00864775
H        2.23536120       1.96642964      -0.00425077       0.01427820      -0.01873923      -0.02343195       0.03942961      -0.27646725      -0.02379370
F       -0.54955350       0.00370139       0.01847982      -0.01114542      -0.00424726       0.01948301       0.77860860       0.00261638      -0.01782826
Cl       3.68778168      -0.14143863      -0.26785318       0.02207564       0.04881400       0.08250745       0.70107755      -0.10912844      -0.10832724
H        0.73512763       1.76839704       0.92893601       0.02458522      -0.00184306      -0.00171383       0.02450906       0.17912212       0.03982452