18
Properties=species:S:1:pos:R:3:mp2_forces:R:3:forces:R:3 R1=NO2 R2=CH3 R3=CH3 R4=CN lg=Br nu=F rxn-id=1071 mp2_energy=-85069.00170906745 energy=-85069.00170458009 free_energy=-85069.00170458009 pbc="F F F"
C        0.29214736      -0.10294316       0.01213832      -0.05843273      -0.01943418       0.00568690      -0.05840209      -0.01945450       0.00568083
C        0.70779864       1.36381137      -0.03609221      -0.00923821      -0.04681150      -0.00025099      -0.00920520      -0.04678345      -0.00026199
H        1.83504776       1.19829549      -0.12378865       0.01531099       0.01476556      -0.00382724       0.01527053       0.01478112      -0.00383445
Br      -1.65375109      -0.34196936      -0.34524852       0.04739411       0.01931206       0.02389566       0.04737624       0.01929013       0.02390608
F        3.01545914       0.22572895       0.25240858       0.02785468       0.06935445       0.06397354       0.02786451       0.06934894       0.06397532
N        0.96814224      -0.84428187      -1.14899449      -0.04991359      -0.06200586       0.00788829      -0.04987454      -0.06176390       0.00770558
O        1.23520207      -0.19198232      -2.14722189      -0.02466676       0.01013539      -0.02816024      -0.02469464       0.01003955      -0.02803389
O        1.13153850      -2.05244039      -1.02526909      -0.01697178       0.04745072      -0.00323447      -0.01699452       0.04735368      -0.00319927
C        0.64243783      -0.78790083       1.30887887       0.03458877       0.00389987      -0.01131918       0.03457537       0.00391288      -0.01129747
H        1.71504222      -0.58568862       1.41577123       0.04499426      -0.02932820       0.01708448       0.04498563      -0.02932870       0.01707962
H        0.04804548      -0.37286248       2.12472461       0.02868304      -0.01505446      -0.03132879       0.02868893      -0.01506172      -0.03134042
H        0.45772476      -1.85774670       1.22947706      -0.04187727       0.03419799      -0.00262867      -0.04187980       0.03418524      -0.00262756
C        0.45035448       2.10275322       1.27928800      -0.00630524      -0.00739439      -0.02184797      -0.00630204      -0.00739351      -0.02184187
H       -0.58831942       2.01430168       1.61494184       0.00017357      -0.00393761      -0.00079277       0.00018422      -0.00393209      -0.00079223
H        1.12637041       1.71753750       2.04329482      -0.01912121      -0.00859760      -0.02087658      -0.01913269      -0.00858878      -0.02088553
H        0.67251417       3.16250169       1.13481071      -0.00202195       0.00647304       0.02903033      -0.00202389       0.00645947       0.02902910
C        0.12938578       2.11468685      -1.13717622      -0.02964883       0.02556641      -0.05788189      -0.02957808       0.02545139      -0.05773580
N       -0.34548732       2.81899033      -1.95194942       0.05919816      -0.03859168       0.03458958       0.05914207      -0.03851575       0.03447395
18
Properties=species:S:1:pos:R:3:mp2_forces:R:3:forces:R:3 R1=NO2 R2=CH3 R3=CH3 R4=CN lg=Br nu=F rxn-id=1071 mp2_energy=-85069.00170906745 energy=-85069.00309578357 free_energy=-85069.00170458009 pbc="F F F"
C        0.30272014      -0.09975582       0.00872465      -0.05843273      -0.01943418       0.00568690      -0.02439720      -0.00478482      -0.00280467
C        0.70825745       1.37189246      -0.05328110      -0.00923821      -0.04681150      -0.00025099      -0.01166757      -0.01181279       0.00479791
H        1.82809671       1.22915163      -0.16357970       0.01531099       0.01476556      -0.00382724       0.00069033      -0.03650276       0.03614137
Br      -1.63883637      -0.34220201      -0.36432188       0.04739411       0.01931206       0.02389566      -0.02268271      -0.00557640       0.00769229
F        2.99177202       0.21886169       0.30649037       0.02785468       0.06935445       0.06397354       0.03062708       0.09018144       0.03056164
N        0.98726228      -0.84268919      -1.14494500      -0.04991359      -0.06200586       0.00788829      -0.02385530      -0.00469353      -0.00508257
O        1.23003342      -0.19558166      -2.15395425      -0.02466676       0.01013539      -0.02816024      -0.02664869      -0.00654662      -0.00707367
O        1.17831135      -2.04443445      -1.00974297      -0.01697178       0.04745072      -0.00323447      -0.00376493      -0.00133206       0.00355742
C        0.62240712      -0.78639419       1.31329523       0.03458877       0.00389987      -0.01131918       0.00700105      -0.00519565      -0.01221650
H        1.68728937      -0.58206348       1.47141176       0.04499426      -0.02932820       0.01708448       0.02029946      -0.01513695      -0.06282308
H       -0.01506419      -0.38978222       2.10444290       0.02868304      -0.01505446      -0.03132879       0.05372387       0.02098132       0.01396970
H        0.44226388      -1.85450320       1.21382199      -0.04187727       0.03419799      -0.00262867      -0.02176827      -0.00266008       0.00862360
C        0.48358580       2.09930716       1.27340467      -0.00630524      -0.00739439      -0.02184797      -0.01354488      -0.00708754       0.00187026
H       -0.54208021       1.99829641       1.64220696       0.00017357      -0.00393761      -0.00079277      -0.01582421       0.00782689       0.00110640
H        1.19210342       1.70443832       2.00148259      -0.01912121      -0.00859760      -0.02087658      -0.01764225      -0.01039962       0.00401485
H        0.69378366       3.16288147       1.13897507      -0.00202195       0.00647304       0.02903033       0.00037399      -0.01042912      -0.00254501
C        0.09289932       2.11741753      -1.13956358      -0.02964883       0.02556641      -0.05788189       0.02100546      -0.00304388      -0.00533406
N       -0.40515218       2.81595090      -1.94487416       0.05919816      -0.03859168       0.03458958       0.04807477       0.00621217      -0.01445589
18
Properties=species:S:1:pos:R:3:mp2_forces:R:3:forces:R:3 R1=NO2 R2=CH3 R3=CH3 R4=CN lg=Br nu=F rxn-id=1071 mp2_energy=-85069.00170906745 energy=-85068.97151597562 free_energy=-85069.00170458009 pbc="F F F"
C        0.32541399      -0.09508095       0.01204577      -0.05843273      -0.01943418       0.00568690      -0.04438637      -0.00783645      -0.00637411
C        0.71907823       1.38321508      -0.05762387      -0.00923821      -0.04681150      -0.00025099      -0.02060604      -0.01835319       0.00821633
H        1.82703077       1.26374032      -0.19674146       0.01531099       0.01476556      -0.00382724      -0.00409269      -0.06695882       0.05278208
Br      -1.61823487      -0.33583135      -0.36926836       0.04739411       0.01931206       0.02389566      -0.03377708      -0.01499873      -0.00398958
F        2.96250060       0.13076266       0.27768460       0.02785468       0.06935445       0.06397354       0.04841062       0.11328649       0.03464522
N        1.00852075      -0.83841709      -1.13976052      -0.04991359      -0.06200586       0.00788829      -0.02845573      -0.00511618      -0.00363464
O        1.25224260      -0.18999648      -2.14758599      -0.02466676       0.01013539      -0.02816024      -0.02156723      -0.00655672      -0.00256497
O        1.18211809      -2.04300228      -1.01210268      -0.01697178       0.04745072      -0.00323447       0.00307438      -0.00002392       0.01089235
C        0.61757689      -0.78171709       1.32478999       0.03458877       0.00389987      -0.01131918       0.00426835      -0.00338711      -0.01822925
H        1.67012080      -0.56655836       1.52863573       0.04499426      -0.02932820       0.01708448       0.02919142      -0.01008640      -0.10354751
H       -0.06355649      -0.41211376       2.09271002       0.02868304      -0.01505446      -0.03132879       0.06952220       0.03519624       0.02318192
H        0.46678405      -1.85246165       1.20433582      -0.04187727       0.03419799      -0.00262867      -0.03301603      -0.00196199       0.01395130
C        0.49448422       2.10654255       1.27123212      -0.00630524      -0.00739439      -0.02184797      -0.01681524      -0.00927021       0.00430757
H       -0.53014795       1.99367170       1.63819673       0.00017357      -0.00393761      -0.00079277      -0.01826821       0.01521152       0.00981864
H        1.20405559       1.71283071       1.99880323      -0.01912121      -0.00859760      -0.02087658      -0.01878626      -0.01332699       0.00415829
H        0.69444775       3.17281998       1.14198081      -0.00202195       0.00647304       0.02903033       0.00447578      -0.01442436      -0.00602372
C        0.07431378       2.12079420      -1.13528231      -0.02964883       0.02556641      -0.05788189       0.02538207      -0.00253214      -0.00475897
N       -0.44709578       2.81159316      -1.93205610       0.05919816      -0.03859168       0.03458958       0.05544606       0.01113895      -0.01283094
18
Properties=species:S:1:pos:R:3:mp2_forces:R:3:forces:R:3 R1=NO2 R2=CH3 R3=CH3 R4=CN lg=Br nu=F rxn-id=1071 mp2_energy=-85069.00170906745 energy=-85068.93506957208 free_energy=-85069.00170458009 pbc="F F F"
C        0.35031669      -0.09111371       0.01551073      -0.05843273      -0.01943418       0.00568690      -0.06909651      -0.00948187      -0.01026616
C        0.72803820       1.39404067      -0.06246779      -0.00923821      -0.04681150      -0.00025099      -0.02692679      -0.02505357       0.01090673
H        1.82614882       1.30374982      -0.22832058       0.01531099       0.01476556      -0.00382724      -0.00607035      -0.10588070       0.06715359
Br      -1.59846584      -0.33217644      -0.37095117       0.04739411       0.01931206       0.02389566      -0.04423663      -0.01795431      -0.01587203
F        2.93004814       0.06530970       0.25722993       0.02785468       0.06935445       0.06397354       0.07701174       0.12447992       0.03837866
N        1.02661673      -0.83565697      -1.13678971      -0.04991359      -0.06200586       0.00788829      -0.03271340      -0.00343968      -0.00077380
O        1.26770841      -0.18648735      -2.14489739      -0.02466676       0.01013539      -0.02816024      -0.01422917      -0.00365128       0.00437630
O        1.18166246      -2.04317689      -1.01716082      -0.01697178       0.04745072      -0.00323447       0.01177622       0.00331135       0.01895023
C        0.61417776      -0.77996558       1.33546729       0.03458877       0.00389987      -0.01131918      -0.00154077       0.00087949      -0.02374922
H        1.65218590      -0.56066033       1.58877446       0.04499426      -0.02932820       0.01708448       0.03614090       0.00582611      -0.14327687
H       -0.10458201      -0.43297296       2.07962653       0.02868304      -0.01505446      -0.03132879       0.07455008       0.04214696       0.03269927
H        0.48584866      -1.85164128       1.19638770      -0.04187727       0.03419799      -0.00262867      -0.03711614       0.00013024       0.01701871
C        0.50523918       2.11237210       1.26919419      -0.00630524      -0.00739439      -0.02184797      -0.01844865      -0.01112024       0.00542861
H       -0.51717894       1.98729190       1.63742894       0.00017357      -0.00393761      -0.00079277      -0.01960063       0.02021586       0.01548097
H        1.21858509       1.71991748       1.99363596      -0.01912121      -0.00859760      -0.02087658      -0.01909393      -0.01496133       0.00410162
H        0.69446770       3.18127221       1.14509034      -0.00202195       0.00647304       0.02903033       0.00776310      -0.01741026      -0.01014551
C        0.05703079       2.12316152      -1.13245754      -0.02964883       0.02556641      -0.05788189       0.02962089      -0.00127724      -0.00367556
N       -0.47819474       2.80752746      -1.92530754       0.05919816      -0.03859168       0.03458958       0.05221004       0.01324055      -0.00673554
18
Properties=species:S:1:pos:R:3:mp2_forces:R:3:forces:R:3 R1=NO2 R2=CH3 R3=CH3 R4=CN lg=Br nu=F rxn-id=1071 mp2_energy=-85069.00170906745 energy=-85068.89190080325 free_energy=-85069.00170458009 pbc="F F F"
C        0.38319211      -0.08699969       0.01971188      -0.05843273      -0.01943418       0.00568690      -0.10839415      -0.00999744      -0.01383818
C        0.74210673       1.40507105      -0.06620667      -0.00923821      -0.04681150      -0.00025099      -0.03916404      -0.03185841       0.01241671
H        1.83191519       1.34956204      -0.25485905       0.01531099       0.01476556      -0.00382724      -0.01367437      -0.15641435       0.07646502
Br      -1.57666588      -0.32466290      -0.36567322       0.04739411       0.01931206       0.02389566      -0.05311874      -0.01950920      -0.02668494
F        2.89679276       0.01001465       0.23016926       0.02785468       0.06935445       0.06397354       0.11567489       0.12100621       0.04138678
N        1.04170103      -0.83443431      -1.13740289      -0.04991359      -0.06200586       0.00788829      -0.03449416       0.00167659       0.00774249
O        1.27127041      -0.18586101      -2.14899173      -0.02466676       0.01013539      -0.02816024       0.00048404       0.00365088       0.01856771
O        1.17741327      -2.04484078      -1.02595015      -0.01697178       0.04745072      -0.00323447       0.02352462       0.00982750       0.03199158
C        0.61589913      -0.77955939       1.34638708       0.03458877       0.00389987      -0.01131918      -0.01114951       0.00636187      -0.02951099
H        1.63797764      -0.56679900       1.65270543       0.04499426      -0.02932820       0.01708448       0.04222600       0.03349886      -0.18884372
H       -0.13397498      -0.44474555       2.06521710       0.02868304      -0.01505446      -0.03132879       0.07271993       0.03494618       0.04831524
H        0.49717746      -1.85061376       1.19296712      -0.04187727       0.03419799      -0.00262867      -0.03142123       0.00248693       0.01542712
C        0.51141525       2.11695351       1.26743889      -0.00630524      -0.00739439      -0.02184797      -0.01971876      -0.01148535       0.00547737
H       -0.51231450       1.97912605       1.62661517       0.00017357      -0.00393761      -0.00079277      -0.01916807       0.02713341       0.02558559
H        1.22109306       1.72587796       1.99617176      -0.01912121      -0.00859760      -0.02087658      -0.01571650      -0.01678500      -0.00134502
H        0.69060819       3.18844707       1.15115219      -0.00202195       0.00647304       0.02903033       0.01149085      -0.01863995      -0.01475070
C        0.04604926       2.12355614      -1.12974278      -0.02964883       0.02556641      -0.05788189       0.03143759       0.00453812      -0.00440315
N       -0.50200312       2.80069928      -1.91971585       0.05919816      -0.03859168       0.03458958       0.04846162       0.01956316      -0.00399891
18
Properties=species:S:1:pos:R:3:mp2_forces:R:3:forces:R:3 R1=NO2 R2=CH3 R3=CH3 R4=CN lg=Br nu=F rxn-id=1071 mp2_energy=-85069.00170906745 energy=-85068.83678640482 free_energy=-85069.00170458009 pbc="F F F"
C        0.42243142      -0.08326182       0.02450990      -0.05843273      -0.01943418       0.00568690      -0.18222871      -0.00916517      -0.02021319
C        0.75872812       1.41596900      -0.07046939      -0.00923821      -0.04681150      -0.00025099      -0.05771335      -0.03812682       0.01298125
H        1.84025811       1.40348877      -0.27947837       0.01531099       0.01476556      -0.00382724      -0.02298697      -0.22773409       0.08367057
Br      -1.55758831      -0.31404513      -0.35544465       0.04739411       0.01931206       0.02389566      -0.03656930      -0.01899203      -0.03443727
F        2.85898550      -0.03136774       0.21729389       0.02785468       0.06935445       0.06397354       0.17536815       0.10587668       0.02733122
N        1.05197019      -0.83516998      -1.14146162      -0.04991359      -0.06200586       0.00788829      -0.02920533       0.01228600       0.02305066
O        1.26703873      -0.18720996      -2.15736530      -0.02466676       0.01013539      -0.02816024       0.02308609       0.01490335       0.03831871
O        1.16761690      -2.04844673      -1.03894174      -0.01697178       0.04745072      -0.00323447       0.03751141       0.02065850       0.04939464
C        0.62093234      -0.78145756       1.35675249       0.03458877       0.00389987      -0.01131918      -0.02720650       0.01351467      -0.03542572
H        1.62429432      -0.57831501       1.71917847       0.04499426      -0.02932820       0.01708448       0.04572152       0.06728834      -0.23631422
H       -0.15830141      -0.45566271       2.04783961       0.02868304      -0.01505446      -0.03132879       0.06415497       0.01811195       0.07233637
H        0.50850530      -1.85122566       1.18886708      -0.04187727       0.03419799      -0.00262867      -0.02432963       0.00545865       0.01361588
C        0.51749908       2.12043722       1.26500259      -0.00630524      -0.00739439      -0.02184797      -0.02143836      -0.01019683       0.00508879
H       -0.50780904       1.96857951       1.61296266       0.00017357      -0.00393761      -0.00079277      -0.01862721       0.03494282       0.03791766
H        1.22303697       1.73128688       1.99877467      -0.01912121      -0.00859760      -0.02087658      -0.01115816      -0.01908128      -0.00997356
H        0.68577249       3.19444251       1.15636874      -0.00202195       0.00647304       0.02903033       0.01350369      -0.01743477      -0.01614084
C        0.03723369       2.12120399      -1.12803925      -0.02964883       0.02556641      -0.05788189       0.03301709       0.01997200      -0.00592960
N       -0.52095138       2.79154578      -1.91635622       0.05919816      -0.03859168       0.03458958       0.03910059       0.02771802      -0.00527134
18
Properties=species:S:1:pos:R:3:mp2_forces:R:3:forces:R:3 R1=NO2 R2=CH3 R3=CH3 R4=CN lg=Br nu=F rxn-id=1071 mp2_energy=-85069.00170906745 energy=-85068.75532281924 free_energy=-85069.00170458009 pbc="F F F"
C        0.47555346      -0.08055126       0.03071998      -0.05843273      -0.01943418       0.00568690      -0.36642160      -0.01019558      -0.04161456
C        0.77522574       1.42717748      -0.07507331      -0.00923821      -0.04681150      -0.00025099      -0.07700775      -0.04358591       0.01084094
H        1.84632084       1.47128482      -0.30538533       0.01531099       0.01476556      -0.00382724      -0.02527427      -0.30816200       0.08756168
Br      -1.54743553      -0.30730216      -0.34532317       0.04739411       0.01931206       0.02389566       0.06635026      -0.00302095      -0.02566476
F        2.80737964      -0.06134849       0.21433221       0.02785468       0.06935445       0.06397354       0.28290253       0.07966166       0.00305982
N        1.05997370      -0.83881391      -1.14792603      -0.04991359      -0.06200586       0.00788829      -0.01314394       0.02888313       0.04411053
O        1.26016105      -0.19129983      -2.16803142      -0.02466676       0.01013539      -0.02816024       0.04332988       0.02568155       0.05568127
O        1.15622473      -2.05455777      -1.05345809      -0.01697178       0.04745072      -0.00323447       0.04890374       0.03463333       0.06341839
C        0.62889821      -0.78586866       1.36730730       0.03458877       0.00389987      -0.01131918      -0.04989460       0.02144779      -0.04092608
H        1.61076664      -0.59746636       1.78849928       0.04499426      -0.02932820       0.01708448       0.04233730       0.10076872      -0.27232083
H       -0.17766938      -0.46343294       2.02710542       0.02868304      -0.01505446      -0.03132879       0.04555668      -0.00739431       0.10215592
H        0.51730234      -1.85335359       1.18429069      -0.04187727       0.03419799      -0.00262867      -0.01549274       0.00703866       0.01489860
C        0.52429547       2.12321996       1.26277209      -0.00630524      -0.00739439      -0.02184797      -0.02109234      -0.00786708       0.00311926
H       -0.50154952       1.95810590       1.60191057       0.00017357      -0.00393761      -0.00079277      -0.01745516       0.03763763       0.04309365
H        1.22758470       1.73575243       1.99964654      -0.01912121      -0.00859760      -0.02087658      -0.00644965      -0.02062325      -0.01829892
H        0.68255539       3.19929613       1.16047608      -0.00202195       0.00647304       0.02903033       0.01139073      -0.01368764      -0.01274369
C        0.02664129       2.11547795      -1.12677269      -0.02964883       0.02556641      -0.05788189       0.03772315       0.04993676      -0.00640529
N       -0.53257577       2.78447166      -1.91509657       0.05919816      -0.03859168       0.03458958       0.01373778       0.02884751      -0.00996593
18
Properties=species:S:1:pos:R:3:mp2_forces:R:3:forces:R:3 R1=NO2 R2=CH3 R3=CH3 R4=CN lg=Br nu=F rxn-id=1071 mp2_energy=-85069.00170906745 energy=-85068.63826808755 free_energy=-85069.00170458009 pbc="F F F"
C        0.55472291      -0.07833513       0.03999754      -0.05843273      -0.01943418       0.00568690      -0.60172958      -0.01562077      -0.07481600
C        0.79128341       1.43676302      -0.07756458      -0.00923821      -0.04681150      -0.00025099      -0.07195250      -0.03935711       0.00483261
H        1.85101524       1.53872074      -0.32485812       0.01531099       0.01476556      -0.00382724      -0.01598123      -0.28696302       0.06962614
Br      -1.56159466      -0.30665003      -0.33988188       0.04739411       0.01931206       0.02389566       0.21577510       0.01921598       0.00393066
F        2.74615050      -0.07926044       0.21229671       0.02785468       0.06935445       0.06397354       0.35699621       0.04001302      -0.00903576
N        1.06317343      -0.84501790      -1.15691443      -0.04991359      -0.06200586       0.00788829       0.01767234       0.03694502       0.05517641
O        1.25095253      -0.19682349      -2.17955737      -0.02466676       0.01013539      -0.02816024       0.04358860       0.02348913       0.05225493
O        1.14624054      -2.06197427      -1.06650655      -0.01697178       0.04745072      -0.00323447       0.04454125       0.03650822       0.05492224
C        0.63992602      -0.79068179       1.37646354       0.03458877       0.00389987      -0.01131918      -0.05058934       0.02082815      -0.03376473
H        1.60233943      -0.62042459       1.84707209       0.04499426      -0.02932820       0.01708448       0.03421672       0.09629623      -0.23194416
H       -0.18650171      -0.46182519       2.00621799       0.02868304      -0.01505446      -0.03132879       0.02479495      -0.02599319       0.10627774
H        0.51997181      -1.85495588       1.18134194      -0.04187727       0.03419799      -0.00262867      -0.00363391       0.00382714       0.01570508
C        0.52831333       2.12492112       1.26195845      -0.00630524      -0.00739439      -0.02184797      -0.01374855      -0.00419492      -0.00029777
H       -0.49845121       1.95055772       1.59236523       0.00017357      -0.00393761      -0.00079277      -0.01245769       0.02932896       0.03219078
H        1.22812175       1.73925618       2.00322059      -0.01912121      -0.00859760      -0.02087658      -0.00235166      -0.01847962      -0.02026678
H        0.68039231       3.20216302       1.16351857      -0.00202195       0.00647304       0.02903033       0.00605392      -0.00719915      -0.00553666
C        0.01815644       2.10491464      -1.12560106      -0.02964883       0.02556641      -0.05788189       0.03797617       0.07062015      -0.00467192
N       -0.53455906       2.77944363      -1.91357510       0.05919816      -0.03859168       0.03458958      -0.00917079       0.02073580      -0.01458282
18
Properties=species:S:1:pos:R:3:mp2_forces:R:3:forces:R:3 R1=NO2 R2=CH3 R3=CH3 R4=CN lg=Br nu=F rxn-id=1071 mp2_energy=-85069.00170906745 energy=-85068.53991342218 free_energy=-85069.00170458009 pbc="F F F"
C        0.65243936      -0.07577200       0.05227437      -0.05843273      -0.01943418       0.00568690      -0.30109622      -0.00766552      -0.03851784
C        0.80285432       1.44327033      -0.07835223      -0.00923821      -0.04681150      -0.00025099      -0.02627628      -0.01465215       0.00044400
H        1.85341550       1.58580491      -0.33628091       0.01531099       0.01476556      -0.00382724      -0.00459089      -0.10480965       0.02480242
Br      -1.59611112      -0.30953205      -0.34068090       0.04739411       0.01931206       0.02389566       0.11273287       0.01257121       0.00636438
F        2.68843675      -0.08663753       0.21232987       0.02785468       0.06935445       0.06397354       0.16102001       0.00673645      -0.00741487
N        1.06047999      -0.85098958      -1.16565139      -0.04991359      -0.06200586       0.00788829       0.01520574       0.01496743       0.02376864
O        1.24366312      -0.20062288      -2.18789295      -0.02466676       0.01013539      -0.02816024       0.01718343       0.00856093       0.02032793
O        1.13931922      -2.06785596      -1.07516119      -0.01697178       0.04745072      -0.00323447       0.01915616       0.01405096       0.02077507
C        0.64834606      -0.79406954       1.38217383       0.03458877       0.00389987      -0.01131918      -0.01691688       0.00772965      -0.01045020
H        1.59722024      -0.63678438       1.88479913       0.04499426      -0.02932820       0.01708448       0.01512385       0.03461211      -0.08447132
H       -0.18988996      -0.45732587       1.98965399       0.02868304      -0.01505446      -0.03132879       0.01001740      -0.01337163       0.04514204
H        0.52009379      -1.85553004       1.17913043      -0.04187727       0.03419799      -0.00262867      -0.00059212       0.00078013       0.00833169
C        0.53011677       2.12562032       1.26196638      -0.00630524      -0.00739439      -0.02184797      -0.00477209      -0.00104011      -0.00105020
H       -0.49704353       1.94613870       1.58670629       0.00017357      -0.00393761      -0.00079277      -0.00549701       0.01137789       0.00919650
H        1.22761769       1.74176954       2.00661495      -0.01912121      -0.00859760      -0.02087658      -0.00266487      -0.00849620      -0.00822266
H        0.67945786       3.20330679       1.16470788      -0.00202195       0.00647304       0.02903033       0.00200457      -0.00188522      -0.00026951
C        0.01196472       2.09353858      -1.12490844      -0.02964883       0.02556641      -0.05788189       0.01582196       0.03230806      -0.00156679
N       -0.53272775       2.77646201      -1.91143554       0.05919816      -0.03859168       0.03458958      -0.00585962       0.00822566      -0.00718927
18
Properties=species:S:1:pos:R:3:mp2_forces:R:3:forces:R:3 R1=NO2 R2=CH3 R3=CH3 R4=CN lg=Br nu=F rxn-id=1071 mp2_energy=-85069.00170906745 energy=-85068.56913777858 free_energy=-85069.00170458009 pbc="F F F"
C        0.76794732      -0.07284432       0.06770381      -0.05843273      -0.01943418       0.00568690       0.74060032       0.01876753       0.09941141
C        0.80961542       1.44758147      -0.07800569      -0.00923821      -0.04681150      -0.00025099       0.04281360       0.02818028       0.00199831
H        1.85356336       1.61517121      -0.34309220       0.01531099       0.01476556      -0.00382724      -0.00019653       0.19145314      -0.04450616
Br      -1.63882120      -0.31421693      -0.34545034       0.04739411       0.01931206       0.02389566      -0.27013313      -0.02804284      -0.03214727
F        2.63302604      -0.08720267       0.21294308       0.02785468       0.06935445       0.06397354      -0.35392039      -0.00725841      -0.00196953
N        1.05278441      -0.85564062      -1.17306526      -0.04991359      -0.06200586       0.00788829      -0.04919106      -0.03003327      -0.04667693
O        1.23761703      -0.20288126      -2.19348712      -0.02466676       0.01013539      -0.02816024      -0.04067175      -0.01464692      -0.03528021
O        1.13361502      -2.07187792      -1.08047267      -0.01697178       0.04745072      -0.00323447      -0.03533217      -0.02586699      -0.03299207
C        0.65274700      -0.79618745       1.38483376       0.03458877       0.00389987      -0.01131918       0.02968890      -0.01370356       0.01841851
H        1.59302485      -0.64756705       1.90783949       0.04499426      -0.02932820       0.01708448      -0.02441516      -0.07329699       0.14869256
H       -0.19150188      -0.45161612       1.97673999       0.02868304      -0.01505446      -0.03132879      -0.00679407       0.03788310      -0.07895335
H        0.51905906      -1.85535778       1.17674576      -0.04187727       0.03419799      -0.00262867      -0.00890281       0.00132882      -0.01341546
C        0.53026518       2.12570981       1.26244739      -0.00630524      -0.00739439      -0.02184797      -0.00121424       0.00057938       0.00269792
H       -0.49665648       1.94372922       1.58417286       0.00017357      -0.00393761      -0.00079277      -0.00068310      -0.01357241      -0.01868195
H        1.22692955       1.74335279       2.00920793      -0.01912121      -0.00859760      -0.02087658      -0.00900732       0.00723833       0.01685827
H        0.67928772       3.20340997       1.16480234      -0.00202195       0.00647304       0.02903033      -0.00057790       0.00045274       0.00213584