15
Properties=species:S:1:pos:R:3:mp2_forces:R:3:forces:R:3 R1=NO2 R2=H R3=CH3 R4=CN lg=Br nu=Cl rxn-id=946 mp2_energy=-93799.9579575287 energy=-93799.95795001902 free_energy=-93799.95795001902 pbc="F F F"
C        0.43458074      -0.04111256      -0.10000222       0.00349967      -0.01482355       0.00479280       0.00350682      -0.01479502       0.00476726
C        0.78672139       1.43453012      -0.09566337       0.00719126      -0.01441776      -0.00539729       0.00718577      -0.01435825      -0.00541543
H        1.87511933       1.45507860      -0.21598156       0.01151368      -0.03408870       0.00648714       0.01149772      -0.03408979       0.00649166
Br      -1.48750715      -0.36356612      -0.14966880      -0.01278391       0.03414022       0.00116303      -0.01279422       0.03412792       0.00116187
Cl       3.28332752      -0.15152927       1.21561170      -0.01276614       0.02649639       0.06649492      -0.01276558       0.02649584       0.06649565
H        0.83647650      -0.52552186       0.78678322       0.05415168      -0.00075541      -0.00676881       0.05415550      -0.00076099      -0.00677426
N        1.03571516      -0.78006760      -1.26691237       0.02302002       0.00049057       0.01051354       0.02296408       0.00032449       0.01057167
O        1.50348523      -0.11197456      -2.18353113      -0.01237964      -0.00350629      -0.03010766      -0.01234261      -0.00345000      -0.03014164
O        1.00904969      -2.00166731      -1.20227646      -0.02052668      -0.00359350      -0.03959374      -0.02050862      -0.00351902      -0.03959819
C        0.45770528       2.05751424       1.26350089       0.00004229       0.00650586      -0.01311445       0.00004152       0.00650220      -0.01311341
H       -0.59844954       1.93517437       1.51168997      -0.00073448       0.02052751      -0.00546954      -0.00072566       0.02052975      -0.00546876
H        1.08596691       1.57571523       2.01431243      -0.00489545      -0.00571474      -0.02221676      -0.00490235      -0.00570958      -0.02222401
H        0.68883096       3.12398200       1.23739569       0.01656477       0.00708620       0.04442392       0.01656623       0.00708064       0.04442431
C        0.16600511       2.18797233      -1.18415595      -0.03860358       0.01838442      -0.04917023      -0.03857722       0.01835580      -0.04912633
N       -0.32109964       2.86993056      -2.00769668      -0.01329349      -0.03673122       0.03796313      -0.01330140      -0.03673399       0.03794960
15
Properties=species:S:1:pos:R:3:mp2_forces:R:3:forces:R:3 R1=NO2 R2=H R3=CH3 R4=CN lg=Br nu=Cl rxn-id=946 mp2_energy=-93799.9579575287 energy=-93799.95466574638 free_energy=-93799.95795001902 pbc="F F F"
C        0.44190056      -0.03790253      -0.10799451       0.00349967      -0.01482355       0.00479280       0.00417883      -0.00412300      -0.00328800
C        0.79091785       1.43961300      -0.10867336       0.00719126      -0.01441776      -0.00539729       0.00215709      -0.00411719      -0.00291984
H        1.87540635       1.46404208      -0.25312272       0.01151368      -0.03408870       0.00648714       0.00272635      -0.00486941       0.00042004
Br      -1.47993640      -0.35524563      -0.14685750      -0.01278391       0.03414022       0.00116303       0.00536797      -0.00816724       0.02578074
Cl       3.20985615      -0.19955188       1.35775655      -0.01276614       0.02649639       0.06649492      -0.00119929       0.04019499       0.04795424
H        0.85848495      -0.52097787       0.77526927       0.05415168      -0.00075541      -0.00676881       0.02341903      -0.00160353      -0.01011509
N        1.04075789      -0.76886701      -1.28335216       0.02302002       0.00049057       0.01051354      -0.01176770      -0.00099237      -0.01332738
O        1.54684539      -0.09404823      -2.17512630      -0.01237964      -0.00350629      -0.03010766      -0.02021855       0.00087144      -0.01699369
O        0.98147212      -1.99065389      -1.24984334      -0.02052668      -0.00359350      -0.03959374      -0.01153624      -0.00137546      -0.01595735
C        0.48454777       2.06311157       1.25611858       0.00004229       0.00650586      -0.01311445      -0.00030629      -0.00512525      -0.00311900
H       -0.55991274       1.91099384       1.53536639      -0.00073448       0.02052751      -0.00546954      -0.00673665       0.01600706      -0.01638042
H        1.14714032       1.59902727       1.98756622      -0.00489545      -0.00571474      -0.02221676      -0.01758256      -0.02166353       0.00170210
H        0.68304772       3.13608025       1.22497759       0.01656477       0.00708620       0.04442392       0.02368989      -0.00950010       0.00365339
C        0.13396326       2.18022442      -1.18727719      -0.03860358       0.01838442      -0.04917023       0.00391121      -0.00126601      -0.00113979
N       -0.39856370       2.83861278      -2.00140215      -0.01329349      -0.03673122       0.03796313       0.00389691       0.00572961       0.00373004
15
Properties=species:S:1:pos:R:3:mp2_forces:R:3:forces:R:3 R1=NO2 R2=H R3=CH3 R4=CN lg=Br nu=Cl rxn-id=946 mp2_energy=-93799.9579575287 energy=-93799.94954181848 free_energy=-93799.95795001902 pbc="F F F"
C        0.43826081      -0.03606302      -0.10592769       0.00349967      -0.01482355       0.00479280       0.00199692      -0.00448266      -0.00424179
C        0.79154915       1.44056110      -0.10571959       0.00719126      -0.01441776      -0.00539729      -0.00048811      -0.00493407      -0.00395260
H        1.87644885       1.46285441      -0.24769474       0.01151368      -0.03408870       0.00648714       0.00034728      -0.00865741       0.00102604
Br      -1.48571807      -0.34558984      -0.16878501      -0.01278391       0.03414022       0.00116303       0.00368922      -0.01190136       0.02862664
Cl       3.22126303      -0.19925311       1.30818713      -0.01276614       0.02649639       0.06649492       0.00538284       0.04178668       0.05805991
H        0.83850964      -0.52115438       0.78295132       0.05415168      -0.00075541      -0.00676881       0.02608067      -0.00031445      -0.01176969
N        1.04644194      -0.77251504      -1.27254897       0.02302002       0.00049057       0.01051354      -0.01358717      -0.00040473      -0.01483216
O        1.54732112      -0.10161106      -2.16992151      -0.01237964      -0.00350629      -0.03010766      -0.02210677       0.00212667      -0.01765126
O        0.99419466      -1.99419313      -1.22874938      -0.02052668      -0.00359350      -0.03959374      -0.01174926      -0.00076228      -0.01788839
C        0.48209318       2.06275177       1.25909694       0.00004229       0.00650586      -0.01311445      -0.00102654      -0.00531412      -0.00414035
H       -0.56156712       1.90417345       1.53810646      -0.00073448       0.02052751      -0.00546954      -0.00628596       0.01797911      -0.01440139
H        1.14678922       1.60256429       1.99117963      -0.00489545      -0.00571474      -0.02221676      -0.01722850      -0.02269302      -0.00199934
H        0.67374537       3.13698873       1.22872052       0.01656477       0.00708620       0.04442392       0.02498231      -0.01064035       0.00265343
C        0.13804459       2.18281241      -1.18506654      -0.03860358       0.01838442      -0.04917023       0.00384635      -0.00084619      -0.00276879
N       -0.39144889       2.84213159      -2.00042321      -0.01329349      -0.03673122       0.03796313       0.00614673       0.00905817       0.00327973
15
Properties=species:S:1:pos:R:3:mp2_forces:R:3:forces:R:3 R1=NO2 R2=H R3=CH3 R4=CN lg=Br nu=Cl rxn-id=946 mp2_energy=-93799.9579575287 energy=-93799.94153825357 free_energy=-93799.95795001902 pbc="F F F"
C        0.43590495      -0.03307612      -0.10298565       0.00349967      -0.01482355       0.00479280      -0.00505367      -0.00479291      -0.00628402
C        0.79363405       1.44295854      -0.10133070       0.00719126      -0.01441776      -0.00539729      -0.00707538      -0.00697899      -0.00693661
H        1.87884438       1.46550534      -0.24132046       0.01151368      -0.03408870       0.00648714      -0.00524300      -0.02221034       0.00129074
Br      -1.49059070      -0.33244277      -0.19802678      -0.01278391       0.03414022       0.00116303      -0.00119467      -0.01819621       0.03514987
Cl       3.23030162      -0.20602796       1.24525106      -0.01276614       0.02649639       0.06649492       0.02151862       0.04389640       0.07456012
H        0.81364914      -0.52158828       0.79277502       0.05415168      -0.00075541      -0.00676881       0.03328062       0.00378402      -0.01431353
N        1.05499305      -0.77611779      -1.25886597       0.02302002       0.00049057       0.01051354      -0.01708777       0.00096789      -0.01676428
O        1.54482375      -0.11022422      -2.16570717      -0.01237964      -0.00350629      -0.03010766      -0.02112219       0.00494010      -0.01625951
O        1.01401492      -1.99747568      -1.20087638      -0.02052668      -0.00359350      -0.03959374      -0.01173126       0.00044402      -0.01959691
C        0.47968892       2.06340994       1.26345007       0.00004229       0.00650586      -0.01311445      -0.00302964      -0.00643707      -0.00662806
H       -0.56383903       1.89933794       1.53990840      -0.00073448       0.02052751      -0.00546954      -0.00804263       0.01964107      -0.01040395
H        1.14406169       1.60616350       1.99773923      -0.00489545      -0.00571474      -0.02221676      -0.01500655      -0.02589267      -0.00894560
H        0.66567890       3.13870949       1.23542471       0.01656477       0.00708620       0.04442392       0.02581238      -0.01170985      -0.00162930
C        0.14187167       2.18471869      -1.18180640      -0.03860358       0.01838442      -0.04917023       0.00341436       0.00247570      -0.00592994
N       -0.38710982       2.84060755      -2.00022361      -0.01329349      -0.03673122       0.03796313       0.01056077       0.02006883       0.00269097
15
Properties=species:S:1:pos:R:3:mp2_forces:R:3:forces:R:3 R1=NO2 R2=H R3=CH3 R4=CN lg=Br nu=Cl rxn-id=946 mp2_energy=-93799.9579575287 energy=-93799.882099392 free_energy=-93799.95795001902 pbc="F F F"
C        0.44603224      -0.02402042      -0.08828459       0.00349967      -0.01482355       0.00479280      -0.10705636       0.00611208      -0.04356795
C        0.81124261       1.45526234      -0.08504367       0.00719126      -0.01441776      -0.00539729      -0.06271388      -0.01616122      -0.02721982
H        1.89338364       1.51228768      -0.23686855       0.01151368      -0.03408870       0.00648714      -0.03983331      -0.17586391       0.02483423
Br      -1.49305623      -0.27858006      -0.29952033      -0.01278391       0.03414022       0.00116303      -0.00671180      -0.05665815       0.05673804
Cl       3.20872923      -0.25661511       1.04317522      -0.01276614       0.02649639       0.06649492       0.16881614       0.03664187       0.16705597
H        0.72448577      -0.53103690       0.83034479       0.05415168      -0.00075541      -0.00676881       0.11226403       0.06429865      -0.05599161
N        1.09173462      -0.78841085      -1.21212939       0.02302002       0.00049057       0.01051354      -0.05367339       0.01505294      -0.02887783
O        1.54318551      -0.13874160      -2.14942631      -0.01237964      -0.00350629      -0.03010766      -0.00017599       0.01429355      -0.00348119
O        1.07429192      -2.00754406      -1.11882568      -0.02052668      -0.00359350      -0.03959374      -0.00966974       0.01628470      -0.00256931
C        0.48029514       2.06872996       1.27915039       0.00004229       0.00650586      -0.01311445      -0.01961046      -0.00996567      -0.01632689
H       -0.55850235       1.86740528       1.54786376      -0.00073448       0.02052751      -0.00546954      -0.02111357       0.03783699       0.02316230
H        1.15131258       1.63504595       2.02194389      -0.00489545      -0.00571474      -0.02221676      -0.00802013      -0.04396222      -0.04567159
H        0.62738699       3.15018847       1.25383356       0.01656477       0.00708620       0.04442392       0.02594668      -0.01573025      -0.01121423
C        0.14426963       2.18220647      -1.16601370      -0.03860358       0.01838442      -0.04917023       0.01267778       0.05212065      -0.02380179
N       -0.38886379       2.81828103      -1.99679405      -0.01329349      -0.03673122       0.03796313       0.00887399       0.07570000      -0.01306833
15
Properties=species:S:1:pos:R:3:mp2_forces:R:3:forces:R:3 R1=NO2 R2=H R3=CH3 R4=CN lg=Br nu=Cl rxn-id=946 mp2_energy=-93799.9579575287 energy=-93799.70598382138 free_energy=-93799.95795001902 pbc="F F F"
C        0.51088432      -0.02784995      -0.06271312       0.00349967      -0.01482355       0.00479280      -0.70553200       0.01868453      -0.19178884
C        0.84883459       1.46532352      -0.06973118       0.00719126      -0.01441776      -0.00539729      -0.17732124      -0.04221097      -0.04837714
H        1.91752442       1.61840898      -0.25146682       0.01151368      -0.03408870       0.00648714      -0.08458287      -0.45831997       0.06395987
Br      -1.48831774      -0.24557630      -0.33919160      -0.01278391       0.03414022       0.00116303       0.24273135      -0.02686703       0.03791438
Cl       3.10775638      -0.27055970       0.94043571      -0.01276614       0.02649639       0.06649492       0.51968810      -0.02936881       0.30274021
H        0.65546669      -0.56848729       0.86474861       0.05415168      -0.00075541      -0.00676881       0.34091194       0.18272863      -0.13298151
N        1.12347183      -0.80097390      -1.19331644       0.02302002       0.00049057       0.01051354      -0.15158089       0.03076560      -0.03107082
O        1.53386366      -0.15407799      -2.15210181      -0.01237964      -0.00350629      -0.03010766       0.04748123       0.01830305       0.05490234
O        1.08517557      -2.02028914      -1.10967173      -0.02052668      -0.00359350      -0.03959374       0.03387059       0.03181512       0.05569577
C        0.49161470       2.07312223       1.28889988       0.00004229       0.00650586      -0.01311445      -0.03968048      -0.01050994      -0.01572260
H       -0.54625971       1.84297047       1.53393063      -0.00073448       0.02052751      -0.00546954      -0.03621067       0.06113982       0.07465688
H        1.15599898       1.65886449       2.04825222      -0.00489545      -0.00571474      -0.02221676       0.00176603      -0.05822413      -0.07434140
H        0.61161892       3.15791751       1.26232618       0.01656477       0.00708620       0.04442392       0.01132180      -0.01526966      -0.00763296
C        0.13897846       2.15318010      -1.14977563      -0.03860358       0.01838442      -0.04917023       0.03258793       0.20132349      -0.04047421
N       -0.39068359       2.78248515      -1.98721956      -0.01329349      -0.03673122       0.03796313      -0.03545082       0.09601027      -0.04747997
15
Properties=species:S:1:pos:R:3:mp2_forces:R:3:forces:R:3 R1=NO2 R2=H R3=CH3 R4=CN lg=Br nu=Cl rxn-id=946 mp2_energy=-93799.9579575287 energy=-93799.45141779688 free_energy=-93799.95795001902 pbc="F F F"
C        0.60392079      -0.03011628      -0.03741371       0.00349967      -0.01482355       0.00479280      -1.37304765       0.01419634      -0.33991538
C        0.87233110       1.47102915      -0.06355982       0.00719126      -0.01441776      -0.00539729      -0.18420896      -0.05226878      -0.03429765
H        1.92867822       1.67915051      -0.26035653       0.01151368      -0.03408870       0.00648714      -0.06604048      -0.44504334       0.06224181
Br      -1.52004787      -0.24153632      -0.34526287      -0.01278391       0.03414022       0.00116303       0.57022641       0.03381116       0.02601579
Cl       3.03883853      -0.26710432       0.90081289      -0.01276614       0.02649639       0.06649492       0.64283877      -0.05468653       0.31656771
H        0.61095881      -0.59200154       0.88241697       0.05415168      -0.00075541      -0.00676881       0.47106544       0.15501197      -0.06448399
N        1.14332221      -0.80531911      -1.18889732       0.02302002       0.00049057       0.01051354      -0.14062958       0.01767923      -0.01054857
O        1.52612719      -0.15743363      -2.15997298      -0.01237964      -0.00350629      -0.03010766       0.05635472       0.00517640       0.07587844
O        1.08205396      -2.02465811      -1.11540178      -0.02052668      -0.00359350      -0.03959374       0.06066153       0.01727237       0.05556070
C        0.49685070       2.07423297       1.29085121       0.00004229       0.00650586      -0.01311445      -0.02613105      -0.00447459      -0.00843906
H       -0.54129951       1.83412781       1.52416480      -0.00073448       0.02052751      -0.00546954      -0.02439446       0.05019658       0.06357538
H        1.15608114       1.66612111       2.05751594      -0.00489545      -0.00571474      -0.02221676       0.00768966      -0.04804023      -0.06035898
H        0.60955909       3.15968669       1.26376356       0.01656477       0.00708620       0.04442392       0.00112687      -0.00776840      -0.00145486
C        0.13395611       2.12784734      -1.14552570      -0.03860358       0.01838442      -0.04917023       0.04760568       0.26192782      -0.03915200
N       -0.38540296       2.77043192      -1.97972930      -0.01329349      -0.03673122       0.03796313      -0.04311690       0.05701002      -0.04118935
15
Properties=species:S:1:pos:R:3:mp2_forces:R:3:forces:R:3 R1=NO2 R2=H R3=CH3 R4=CN lg=Br nu=Cl rxn-id=946 mp2_energy=-93799.9579575287 energy=-93799.24715405247 free_energy=-93799.95795001902 pbc="F F F"
C        0.68664462      -0.03093224      -0.01693541       0.00349967      -0.01482355       0.00479280      -1.31315432       0.02424012      -0.34402935
C        0.88349731       1.47415184      -0.06144808       0.00719126      -0.01441776      -0.00539729      -0.12215544      -0.03399033      -0.02012340
H        1.93260754       1.70605327      -0.26422673       0.01151368      -0.03408870       0.00648714      -0.03370325      -0.30350428       0.04329247
Br      -1.55407266      -0.24356772      -0.34733521      -0.01278391       0.03414022       0.00116303       0.52034227       0.04590118       0.01590245
Cl       3.00022074      -0.26360300       0.88164968      -0.01276614       0.02649639       0.06649492       0.52808417      -0.04418072       0.24417141
H        0.58269804      -0.60107681       0.88634415       0.05415168      -0.00075541      -0.00676881       0.40276682       0.06993044       0.02776458
N        1.15171057      -0.80666851      -1.18808833       0.02302002       0.00049057       0.01051354      -0.06612695       0.00660815       0.00412751
O        1.52187735      -0.15834765      -2.16485544      -0.01237964      -0.00350629      -0.03010766       0.03971191      -0.00386042       0.04920044
O        1.07889498      -2.02595301      -1.11800770      -0.02052668      -0.00359350      -0.03959374       0.05148023       0.00600739       0.03752120
C        0.49836871       2.07437651       1.29134020       0.00004229       0.00650586      -0.01311445      -0.01167835      -0.00187412      -0.00507803
H       -0.53988450       1.83087435       1.52027308      -0.00073448       0.02052751      -0.00546954      -0.01257475       0.03180258       0.03943381
H        1.15557261       1.66875353       2.06101465      -0.00489545      -0.00571474      -0.02221676       0.00824696      -0.03307915      -0.04187185
H        0.60938466       3.16003126       1.26407315       0.01656477       0.00708620       0.04442392      -0.00222127      -0.00411666       0.00091178
C        0.13006585       2.11359103      -1.14476771      -0.03860358       0.01838442      -0.04917023       0.05201271       0.19348504      -0.00911611
N       -0.38165833       2.76677530      -1.97562495      -0.01329349      -0.03673122       0.03796313      -0.04103073       0.04663079      -0.04210690
15
Properties=species:S:1:pos:R:3:mp2_forces:R:3:forces:R:3 R1=NO2 R2=H R3=CH3 R4=CN lg=Br nu=Cl rxn-id=946 mp2_energy=-93799.9579575287 energy=-93799.11880747536 free_energy=-93799.95795001902 pbc="F F F"
C        0.76083304      -0.03223509       0.00246153       0.00349967      -0.01482355       0.00479280      -0.77524925       0.02279323      -0.21943077
C        0.89041557       1.47613461      -0.06038002       0.00719126      -0.01441776      -0.00539729      -0.05775774      -0.01121625      -0.01093448
H        1.93447594       1.72338827      -0.26681336       0.01151368      -0.03408870       0.00648714      -0.01257879      -0.14934367       0.02181260
Br      -1.58318511      -0.24609451      -0.34869503      -0.01278391       0.03414022       0.00116303       0.29911061       0.03098258       0.00534731
Cl       2.97042853      -0.26098247       0.86778232      -0.01276614       0.02649639       0.06649492       0.29893905      -0.02336342       0.13405366
H        0.56001413      -0.60481575       0.88483932       0.05415168      -0.00075541      -0.00676881       0.22083040       0.01146665       0.05435255
N        1.15538752      -0.80730569      -1.18815934       0.02302002       0.00049057       0.01051354      -0.02177566      -0.00048660       0.00471546
O        1.51883651      -0.15867610      -2.16790871      -0.01237964      -0.00350629      -0.03010766       0.01580576      -0.00854665       0.01784276
O        1.07648787      -2.02654057      -1.11946109      -0.02052668      -0.00359350      -0.03959374       0.03289262      -0.00186969       0.02182951
C        0.49898593       2.07437147       1.29159572       0.00004229       0.00650586      -0.01311445      -0.00421745      -0.00121739      -0.00238363
H       -0.53918792       1.82884207       1.51798515      -0.00073448       0.02052751      -0.00546954      -0.00546770       0.01404779       0.01817501
H        1.15508855       1.67039822       2.06324070      -0.00489545      -0.00571474      -0.02221676       0.00540992      -0.01792413      -0.02268937
H        0.60937260       3.16015279       1.26423827       0.01656477       0.00708620       0.04442392      -0.00285924      -0.00234497       0.00238641
C        0.12696341       2.10311897      -1.14451294      -0.03860358       0.01838442      -0.04917023       0.02834477       0.10728333      -0.00320228
N       -0.37898908       2.76470194      -1.97280715      -0.01329349      -0.03673122       0.03796313      -0.02142731       0.02973919      -0.02187473
15
Properties=species:S:1:pos:R:3:mp2_forces:R:3:forces:R:3 R1=NO2 R2=H R3=CH3 R4=CN lg=Br nu=Cl rxn-id=946 mp2_energy=-93799.9579575287 energy=-93799.07355954596 free_energy=-93799.95795001902 pbc="F F F"
C        0.83235962      -0.03421590       0.02263796       0.00349967      -0.01482355       0.00479280      -0.01297309       0.00183207      -0.00451390
C        0.89575292       1.47730495      -0.05952842       0.00719126      -0.01441776      -0.00539729      -0.00103544       0.00155550      -0.00217383
H        1.93558312       1.73747191      -0.26905455       0.01151368      -0.03408870       0.00648714      -0.00070130       0.00079656      -0.00205985
Br      -1.61032062      -0.24880343      -0.34993963      -0.01278391       0.03414022       0.00116303       0.00994027       0.00246180      -0.00789492
Cl       2.94289322      -0.25865640       0.85531706      -0.01276614       0.02649639       0.06649492       0.00551094       0.00123630       0.00139829
H        0.53975056      -0.60553935       0.87993132       0.05415168      -0.00075541      -0.00676881       0.00461378       0.00336043       0.00236411
N        1.15730463      -0.80768221      -1.18833574       0.02302002       0.00049057       0.01051354      -0.00139059      -0.00445992       0.00273848
O        1.51608173      -0.15876700      -2.16999152      -0.01237964      -0.00350629      -0.03010766      -0.01350267      -0.00945674      -0.00431857
O        1.07429092      -2.02677295      -1.12040086      -0.02052668      -0.00359350      -0.03959374       0.00967746      -0.00440947       0.01163137
C        0.49931001       2.07430238       1.29176100       0.00004229       0.00650586      -0.01311445      -0.00072726      -0.00193562      -0.00064792
H       -0.53869252       1.82714358       1.51622173      -0.00073448       0.02052751      -0.00546954      -0.00008331      -0.00416547      -0.00053391
H        1.15458399       1.67169956       2.06510190      -0.00489545      -0.00571474      -0.02221676       0.00019719      -0.00394660      -0.00291801
H        0.60939352       3.16018982       1.26436816       0.01656477       0.00708620       0.04442392      -0.00276414      -0.00192741       0.00375498
C        0.12423949       2.09377525      -1.14438736      -0.03860358       0.01838442      -0.04917023       0.00037183       0.00640366      -0.00016548
N       -0.37660309       2.76300795      -1.97029569      -0.01329349      -0.03673122       0.03796313       0.00286634       0.01265489       0.00333917
15
Properties=species:S:1:pos:R:3:mp2_forces:R:3:forces:R:3 R1=NO2 R2=H R3=CH3 R4=CN lg=Br nu=Cl rxn-id=946 mp2_energy=-93799.9579575287 energy=-93799.11300632643 free_energy=-93799.95795001902 pbc="F F F"
C        0.90160093      -0.03671734       0.04341621       0.00349967      -0.01482355       0.00479280       0.71312307      -0.02427856       0.21322418
C        0.90081910       1.47741607      -0.05844674       0.00719126      -0.01441776      -0.00539729       0.05209048       0.00281856       0.00911575
H        1.93640837       1.75030461      -0.27137468       0.01151368      -0.03408870       0.00648714       0.00798225       0.13537547      -0.02636721
Br      -1.63681225      -0.25193462      -0.35100905      -0.01278391       0.03414022       0.00116303      -0.26787359      -0.03008353      -0.01891018
Cl       2.91482045      -0.25661052       0.84305391      -0.01276614       0.02649639       0.06649492      -0.28885893       0.02265567      -0.12700568
H        0.52216338      -0.60293342       0.87147025       0.05415168      -0.00075541      -0.00676881      -0.18013288       0.03029744      -0.08614448
N        1.15934138      -0.80778244      -1.18792254       0.02302002       0.00049057       0.01051354       0.01997437      -0.00552250       0.00697834
O        1.51314605      -0.15857514      -2.17126640      -0.01237964      -0.00350629      -0.03010766      -0.04422491      -0.00740481      -0.01764864
O        1.07183389      -2.02650142      -1.12085590      -0.02052668      -0.00359350      -0.03959374      -0.01587328      -0.00167797       0.00666105
C        0.49960752       2.07410492       1.29188640       0.00004229       0.00650586      -0.01311445       0.00242310      -0.00399321       0.00064905
H       -0.53820282       1.82542724       1.51464366      -0.00073448       0.02052751      -0.00546954       0.00512900      -0.02223940      -0.01701273
H        1.15397815       1.67286567       2.06702222      -0.00489545      -0.00571474      -0.02221676      -0.00602207       0.00835099       0.01714866
H        0.60938566       3.16010255       1.26443507       0.01656477       0.00708620       0.04442392      -0.00292363      -0.00282554       0.00441712
C        0.12189002       2.08422250      -1.14411511      -0.03860358       0.01838442      -0.04917023      -0.02428760      -0.09372666       0.00263550
N       -0.37405235       2.76106950      -1.96753195      -0.01329349      -0.03673122       0.03796313       0.02947462      -0.00774595       0.03225929
15
Properties=species:S:1:pos:R:3:mp2_forces:R:3:forces:R:3 R1=NO2 R2=H R3=CH3 R4=CN lg=Br nu=Cl rxn-id=946 mp2_energy=-93799.9579575287 energy=-93799.23151237218 free_energy=-93799.95795001902 pbc="F F F"
C        0.97309668      -0.04000122       0.06592005       0.00349967      -0.01482355       0.00479280       1.22162061      -0.05456677       0.38368387
C        0.90720204       1.47654898      -0.05684202       0.00719126      -0.01441776      -0.00539729       0.10894136      -0.01312428       0.02531732
H        1.93747916       1.76472702      -0.27411064       0.01151368      -0.03408870       0.00648714       0.01779357       0.24954591      -0.04920983
Br      -1.66661197      -0.25572248      -0.35181047      -0.01278391       0.03414022       0.00116303      -0.50429464      -0.06217990      -0.02110334
Cl       2.88329351      -0.25473561       0.82979997      -0.01276614       0.02649639       0.06649492      -0.53872423       0.03350382      -0.22687303
H        0.50594124      -0.59728097       0.85919842       0.05415168      -0.00075541      -0.00676881      -0.27644013       0.09991755      -0.20891183
N        1.16345055      -0.80770798      -1.18658542       0.02302002       0.00049057       0.01051354       0.06933141      -0.00314832       0.02546406
O        1.50953869      -0.15826892      -2.17230261      -0.01237964      -0.00350629      -0.03010766      -0.07548336      -0.00405263      -0.02215711
O        1.06871477      -2.02571473      -1.12116684      -0.02052668      -0.00359350      -0.03959374      -0.04356343       0.00891796       0.00582960
C        0.50013002       2.07379753       1.29203091       0.00004229       0.00650586      -0.01311445       0.00833704      -0.00721710       0.00179174
H       -0.53754585       1.82335359       1.51277917      -0.00073448       0.02052751      -0.00546954       0.01143111      -0.04013534      -0.03251836