18
Properties=species:S:1:pos:R:3:mp2_forces:R:3:forces:R:3 R1=CH3 R2=CH3 R3=CN R4=NH2 lg=F nu=F rxn-id=2228 mp2_energy=-13717.022946661327 energy=-13717.022952231335 free_energy=-13717.022952231335 pbc="F F F"
C        0.65644047      -0.04595292       0.00820783       0.00920646       0.05149138      -0.03581426       0.00915543       0.05144147      -0.03580715
C        1.26511295       1.35553226       0.03551629      -0.05125181       0.02698378       0.01069017      -0.05123872       0.02699932       0.01070170
H        2.37711638       1.13095334       0.07461798      -0.09275754       0.01066234       0.03579657      -0.09275133       0.01065690       0.03578380
F       -0.76118342       0.09757080      -0.06053943      -0.03271735      -0.00919369       0.01258532      -0.03269017      -0.00918134       0.01257926
F        3.64888729       0.10736215       0.11822145       0.01008159      -0.02445903      -0.00224106       0.01008699      -0.02445657      -0.00223810
C        1.13562268      -0.77231047      -1.22626231       0.00905629      -0.00823251      -0.01875228       0.00907840      -0.00822716      -0.01875202
H        0.78870827      -1.80905369      -1.21233851      -0.03265854      -0.03685562       0.00448682      -0.03265629      -0.03684208       0.00448770
H        0.77194681      -0.27367980      -2.12312116       0.01054890       0.01222532      -0.03176551       0.01054971       0.01221915      -0.03176007
H        2.22717411      -0.72672606      -1.17682657       0.04127873      -0.01100162       0.02138742       0.04125484      -0.01100402       0.02138153
C        1.01192472      -0.80360114       1.26589412      -0.01021373       0.03928741      -0.03896755      -0.01018870       0.03928920      -0.03896962
H        2.10432186      -0.87060638       1.26062817      -0.00156601       0.02770470       0.02691151      -0.00158454       0.02770233       0.02691588
H        0.66372675      -0.26970275       2.15344077       0.00472149      -0.01840046       0.02497423       0.00472030      -0.01840108       0.02497133
H        0.54137220      -1.79104143       1.24636706       0.06335272      -0.02216547      -0.00306787       0.06335468      -0.02215359      -0.00306903
C        0.81292972       2.08458487       1.23209410       0.03614599      -0.03587204       0.00249144       0.03617359      -0.03585772       0.00250068
N        0.42242862       2.73460530       2.13178070       0.03095464       0.01570155       0.03034815       0.03091769       0.01569892       0.03035047
N        0.89657403       2.09237665      -1.17936725      -0.00367543      -0.02980636      -0.00363502      -0.00367433      -0.02981782      -0.00364171
H        1.39035550       2.97772304      -1.19261649      -0.00960896      -0.05134029       0.01412902      -0.00960250      -0.05133592       0.01412363
H       -0.09798485       2.28987547      -1.13371818       0.01910256       0.06327062      -0.04955711       0.01909497       0.06327001      -0.04955826
18
Properties=species:S:1:pos:R:3:mp2_forces:R:3:forces:R:3 R1=CH3 R2=CH3 R3=CN R4=NH2 lg=F nu=F rxn-id=2228 mp2_energy=-13717.022946661327 energy=-13716.99743647563 free_energy=-13717.022952231335 pbc="F F F"
C        0.66130891      -0.04020095      -0.00023065       0.00920646       0.05149138      -0.03581426      -0.01144202      -0.00407927      -0.00027320
C        1.25755223       1.36681768       0.02431510      -0.05125181       0.02698378       0.01069017      -0.00712007      -0.00563652       0.00117114
H        2.36401563       1.14799244       0.05437243      -0.09275754       0.01066234       0.03579657      -0.00755960      -0.01119573       0.00224996
F       -0.75755486       0.09501782      -0.07866987      -0.03271735      -0.00919369       0.01258532      -0.01081596      -0.00732981       0.00158608
F        3.63093356       0.05207298       0.14059872       0.01008159      -0.02445903      -0.00224106       0.00332512       0.00102009      -0.00200224
C        1.15654568      -0.77570303      -1.22441862       0.00905629      -0.00823251      -0.01875228      -0.00906638      -0.00146812      -0.00076421
H        0.70771838      -1.77288165      -1.26609202      -0.03265854      -0.03685562       0.00448682       0.01614637      -0.01495731       0.01190913
H        0.91245632      -0.21969116      -2.12974843       0.01054890       0.01222532      -0.03176551      -0.03565421      -0.01330144      -0.00254252
H        2.24352523      -0.82530361      -1.10011919       0.04127873      -0.01100162       0.02138742      -0.00516341       0.02444195      -0.01072912
C        1.01628688      -0.79028234       1.26313992      -0.01021373       0.03928741      -0.03896755      -0.00219840       0.00191947       0.00065446
H        2.10722258      -0.88279567       1.24420979      -0.00156601       0.02770470       0.02691151       0.00495699       0.05496477       0.01626810
H        0.70322115      -0.23912150       2.15337301       0.00472149      -0.01840046       0.02497423      -0.05147443      -0.01824939      -0.00244031
H        0.52400183      -1.76712645       1.26431941       0.06335272      -0.02216547      -0.00306787       0.05066583      -0.02665312      -0.01507491
C        0.83499383       2.08665199       1.23827451       0.03614599      -0.03587204       0.00249144       0.00205763      -0.00600007      -0.00337638
N        0.48032649       2.73007055       2.15742262       0.03095464       0.01570155       0.03034815       0.01103201       0.00648954       0.00532187
N        0.86746553       2.10040224      -1.18488032      -0.00367543      -0.02980636      -0.00363502       0.00611844      -0.00031418       0.00027074
H        1.28600481       3.02254016      -1.16263951      -0.00960896      -0.05134029       0.01412902       0.03779590      -0.01219495      -0.00698995
H       -0.14055006       2.21944974      -1.17124834       0.01910256       0.06327062      -0.04955711       0.00839620       0.03254409       0.00476137
18
Properties=species:S:1:pos:R:3:mp2_forces:R:3:forces:R:3 R1=CH3 R2=CH3 R3=CN R4=NH2 lg=F nu=F rxn-id=2228 mp2_energy=-13717.022946661327 energy=-13716.959140593652 free_energy=-13717.022952231335 pbc="F F F"
C        0.68000329      -0.03431068      -0.00280833       0.00920646       0.05149138      -0.03581426      -0.01998053      -0.00538862       0.00013339
C        1.26993230       1.37647442       0.01938879      -0.05125181       0.02698378       0.01069017      -0.00884539      -0.00986552       0.00320433
H        2.37514053       1.16532373       0.04192330      -0.09275754       0.01066234       0.03579657      -0.01013388      -0.02118640       0.00581676
F       -0.73982513       0.10562846      -0.08926164      -0.03271735      -0.00919369       0.01258532      -0.01842778      -0.00661864       0.00277048
F        3.62461988       0.02227950       0.15581471       0.01008159      -0.02445903      -0.00224106       0.01094767      -0.00532497      -0.00763099
C        1.17559361      -0.77380794      -1.22523397       0.00905629      -0.00823251      -0.01875228      -0.01463037      -0.00064236       0.00002905
H        0.66445800      -1.73789648      -1.30640511      -0.03265854      -0.03685562       0.00448682       0.03220799      -0.03039230       0.02495264
H        1.00261062      -0.18404579      -2.12591137       0.01054890       0.01222532      -0.03176551      -0.06473892      -0.02072016      -0.00619771
H        2.25283707      -0.88834257      -1.06826162       0.04127873      -0.01100162       0.02138742      -0.00362473       0.05173745      -0.01485919
C        1.01854987      -0.78848781       1.26308911      -0.01021373       0.03928741      -0.03896755      -0.00575766       0.00215051      -0.00002953
H        2.09916745      -0.95351193       1.22459944      -0.00156601       0.02770470       0.02691151       0.01265529       0.08621471       0.01954557
H        0.77204750      -0.20509099       2.15338759       0.00472149      -0.01840046       0.02497423      -0.08359843      -0.02402726      -0.00083513
H        0.45484067      -1.72544337       1.29233759       0.06335272      -0.02216547      -0.00306787       0.07114318      -0.04893957      -0.02645699
C        0.84827716       2.09250175       1.23640713       0.03614599      -0.03587204       0.00249144       0.00413674      -0.00754584      -0.00444540
N        0.48854758       2.73307489       2.15544676       0.03095464       0.01570155       0.03034815       0.01625504       0.01298558       0.00515396
N        0.84931907       2.10509333      -1.18420068      -0.00367543      -0.02980636      -0.00363502       0.01344443      -0.00106709       0.00096778
H        1.18490865       3.05959119      -1.13230330      -0.00960896      -0.05134029       0.01412902       0.05587511      -0.01327476      -0.00567645
H       -0.16555402       2.13887951      -1.18602981       0.01910256       0.06327062      -0.04955711       0.01307224       0.04190524       0.00355744
18
Properties=species:S:1:pos:R:3:mp2_forces:R:3:forces:R:3 R1=CH3 R2=CH3 R3=CN R4=NH2 lg=F nu=F rxn-id=2228 mp2_energy=-13717.022946661327 energy=-13716.905109701414 free_energy=-13717.022952231335 pbc="F F F"
C        0.69917323      -0.03042791      -0.00447555       0.00920646       0.05149138      -0.03581426      -0.02918789      -0.00634904       0.00069126
C        1.27779197       1.38609917       0.01532257      -0.05125181       0.02698378       0.01069017      -0.00972664      -0.01441385       0.00498780
H        2.38273239       1.18539262       0.03265777      -0.09275754       0.01066234       0.03579657      -0.01142743      -0.03440089       0.00869566
F       -0.72229101       0.10889157      -0.09613781      -0.03271735      -0.00919369       0.01258532      -0.02642741      -0.00484311       0.00426042
F        3.61196287       0.00359977       0.17357313       0.01008159      -0.02445903      -0.00224106       0.02216523      -0.00877001      -0.01458583
C        1.19301404      -0.77162411      -1.22795498       0.00905629      -0.00823251      -0.01875228      -0.01982117       0.00023783       0.00164366
H        0.62412682      -1.69825365      -1.34976575      -0.03265854      -0.03685562       0.00448682       0.04454000      -0.04757292       0.03586705
H        1.08793773      -0.15158072      -2.11903702       0.01054890       0.01222532      -0.03176551      -0.08939269      -0.02353408      -0.00991492
H        2.25609538      -0.95186475      -1.04625266       0.04127873      -0.01100162       0.02138742       0.00110666       0.07850597      -0.01362869
C        1.02441531      -0.78805453       1.26426305      -0.01021373       0.03928741      -0.03896755      -0.01005211       0.00170574      -0.00118035
H        2.08747241      -1.03138468       1.20668295      -0.00156601       0.02770470       0.02691151       0.02346977       0.11171915       0.01836739
H        0.85281427      -0.17535431       2.15209787       0.00472149      -0.01840046       0.02497423      -0.11040373      -0.02453714       0.00262701
H        0.38959092      -1.67653280       1.32665871       0.06335272      -0.02216547      -0.00306787       0.08140398      -0.07211349      -0.03580656
C        0.85347914       2.09745886       1.23426848       0.03614599      -0.03587204       0.00249144       0.00711405      -0.00917692      -0.00691408
N        0.48798669       2.73395723       2.15375461       0.03095464       0.01570155       0.03034815       0.01951984       0.01951158       0.00411837
N        0.83158476       2.10860933      -1.18412777      -0.00367543      -0.02980636      -0.00363502       0.02008833      -0.00163933       0.00162702
H        1.10098566       3.08263535      -1.11107997      -0.00960896      -0.05134029       0.01412902       0.07020091      -0.01324824      -0.00335575
H       -0.18339847       2.07634280      -1.19846907       0.01910256       0.06327062      -0.04955711       0.01683031       0.04891876       0.00250052
18
Properties=species:S:1:pos:R:3:mp2_forces:R:3:forces:R:3 R1=CH3 R2=CH3 R3=CN R4=NH2 lg=F nu=F rxn-id=2228 mp2_energy=-13717.022946661327 energy=-13716.839908835304 free_energy=-13717.022952231335 pbc="F F F"
C        0.72095959      -0.02735223      -0.00569105       0.00920646       0.05149138      -0.03581426      -0.04220212      -0.00716959       0.00086349
C        1.28334486       1.39690840       0.01166202      -0.05125181       0.02698378       0.01069017      -0.01116300      -0.02053728       0.00601719
H        2.38832508       1.21241433       0.02532340      -0.09275754       0.01066234       0.03579657      -0.01238234      -0.05823878       0.01070792
F       -0.70277839       0.10865501      -0.10052326      -0.03271735      -0.00919369       0.01258532      -0.03765830      -0.00342720       0.00533552
F        3.59242365      -0.01259444       0.19592227       0.01008159      -0.02445903      -0.00224106       0.03798097      -0.00275607      -0.02174308
C        1.20949137      -0.76958812      -1.23238349       0.00905629      -0.00823251      -0.01875228      -0.02518570       0.00145148       0.00405538
H        0.58701206      -1.65526864      -1.39083403      -0.03265854      -0.03685562       0.00448682       0.05346288      -0.06460410       0.04011602
H        1.16580355      -0.12489026      -2.11125786       0.01054890       0.01222532      -0.03176551      -0.10475374      -0.02156609      -0.01167608
H        2.25468045      -1.01613854      -1.03489754       0.04127873      -0.01100162       0.02138742       0.00696915       0.10355330      -0.00379809
C        1.03383573      -0.78818604       1.26625039      -0.01021373       0.03928741      -0.03896755      -0.01540887       0.00122226      -0.00302061
H        2.07217266      -1.11184180       1.19288042      -0.00156601       0.02770470       0.02691151       0.03399631       0.12839564       0.00963058
H        0.93886456      -0.15203370       2.14871289       0.00472149      -0.01840046       0.02497423      -0.12436702      -0.01972806       0.00550350
H        0.33220613      -1.62160517       1.36206120       0.06335272      -0.02216547      -0.00306787       0.08161593      -0.09162294      -0.03739561
C        0.85254905       2.10158303       1.23243277       0.03614599      -0.03587204       0.00249144       0.01100465      -0.01122865      -0.01064687
N        0.47941758       2.73158888       2.15320448       0.03095464       0.01570155       0.03034815       0.02168767       0.02558129       0.00141394
N        0.81365903       2.11116288      -1.18475476      -0.00367543      -0.02980636      -0.00363502       0.02611133      -0.00157203       0.00222612
H        1.03180485       3.09701195      -1.09948233      -0.00960896      -0.05134029       0.01412902       0.08046498      -0.01201281       0.00220708
H       -0.19829772       2.02808370      -1.20664697       0.01910256       0.06327062      -0.04955711       0.01982722       0.05425963       0.00020360
18
Properties=species:S:1:pos:R:3:mp2_forces:R:3:forces:R:3 R1=CH3 R2=CH3 R3=CN R4=NH2 lg=F nu=F rxn-id=2228 mp2_energy=-13717.022946661327 energy=-13716.766589996732 free_energy=-13717.022952231335 pbc="F F F"
C        0.74997561      -0.02323986      -0.00638917       0.00920646       0.05149138      -0.03581426      -0.06591327      -0.00810643      -0.00008758
C        1.29098141       1.41114991       0.00798261      -0.05125181       0.02698378       0.01069017      -0.01625507      -0.03064221       0.00580072
H        2.39570590       1.25461855       0.01788665      -0.09275754       0.01066234       0.03579657      -0.01558211      -0.10531101       0.01305172
F       -0.67682085       0.11065266      -0.10257506      -0.03271735      -0.00919369       0.01258532      -0.05801801      -0.00495458       0.00497233
F        3.56618885      -0.03373253       0.22427158       0.01008159      -0.02445903      -0.00224106       0.06053486       0.01450429      -0.02829313
C        1.22569305      -0.76820558      -1.23818631       0.00905629      -0.00823251      -0.01875228      -0.03181776       0.00381033       0.00771359
H        0.55138410      -1.60989074      -1.42255948      -0.03265854      -0.03685562       0.00448682       0.06157272      -0.08112423       0.03170950
H        1.23233009      -0.10631819      -2.10544327       0.01054890       0.01222532      -0.03176551      -0.10595621      -0.01492659      -0.00890338
H        2.25000503      -1.08233284      -1.03687197       0.04127873      -0.01100162       0.02138742       0.01194151       0.12895470       0.02136989
C        1.04651123      -0.78870954       1.26873986      -0.01021373       0.03928741      -0.03896755      -0.02208246       0.00239353      -0.00625648
H        2.05389310      -1.19191526       1.18723212      -0.00156601       0.02770470       0.02691151       0.04243242       0.14039576      -0.01249629
H        1.02114164      -0.13745452       2.14458831       0.00472149      -0.01840046       0.02497423      -0.12009058      -0.01000187       0.00375235
H        0.28342535      -1.56270876       1.39003997       0.06335272      -0.02216547      -0.00306787       0.07706621      -0.10562643      -0.02471102
C        0.84845921       2.10552415       1.23112220       0.03614599      -0.03587204       0.00249144       0.01406812      -0.01133596      -0.01151129
N        0.46230634       2.72418639       2.15410761       0.03095464       0.01570155       0.03034815       0.02632134       0.03026924      -0.00601024
N        0.79528897       2.11282076      -1.18607006      -0.00367543      -0.02980636      -0.00363502       0.03188141       0.00015272       0.00278346
H        0.97099909       3.10677212      -1.09727899      -0.00960896      -0.05134029       0.01412902       0.08788482      -0.00888581       0.01344513
H       -0.21199403       1.98669252      -1.20861803       0.01910256       0.06327062      -0.04955711       0.02201206       0.06043451      -0.00632928
18
Properties=species:S:1:pos:R:3:mp2_forces:R:3:forces:R:3 R1=CH3 R2=CH3 R3=CN R4=NH2 lg=F nu=F rxn-id=2228 mp2_energy=-13717.022946661327 energy=-13716.680621179396 free_energy=-13717.022952231335 pbc="F F F"
C        0.79064441      -0.01682213      -0.00578225       0.00920646       0.05149138      -0.03581426      -0.10752741      -0.00915874      -0.00303210
C        1.30565142       1.43015888       0.00452286      -0.05125181       0.02698378       0.01069017      -0.02878427      -0.04621119       0.00318760
H        2.40965350       1.31806776       0.00907478      -0.09275754       0.01066234       0.03579657      -0.02340174      -0.18370530       0.01740951
F       -0.64046901       0.12020986      -0.10157489      -0.03271735      -0.00919369       0.01258532      -0.09212650      -0.01307834       0.00234984
F        3.53396239      -0.05295202       0.25261834       0.01008159      -0.02445903      -0.00224106       0.09731567       0.03289426      -0.02995371
C        1.24145830      -0.76827647      -1.24447286       0.00905629      -0.00823251      -0.01875228      -0.04082965       0.00800568       0.01268684
H        0.51452876      -1.56288935      -1.43833174      -0.03265854      -0.03685562       0.00448682       0.07032122      -0.09881819       0.00507017
H        1.28400012      -0.09699114      -2.10351900       0.01054890       0.01222532      -0.03176551      -0.09158477      -0.00492768      -0.00114955
H        2.24214797      -1.15216335      -1.05525515       0.04127873      -0.01100162       0.02138742       0.01659536       0.15769412       0.06828427
C        1.06052684      -0.79023298       1.27211579      -0.01021373       0.03928741      -0.03896755      -0.02951740       0.00664499      -0.01166636
H        2.03172117      -1.27073359       1.19512575      -0.00156601       0.02770470       0.02691151       0.05237090       0.15584450      -0.05344570
H        1.08843214      -0.13355412       2.14352382       0.00472149      -0.01840046       0.02497423      -0.09641281       0.00383570      -0.00539294
H        0.24110632      -1.50320377       1.40176875       0.06335272      -0.02216547      -0.00306787       0.07343939      -0.11674246       0.00712622
C        0.84467530       2.10930945       1.23031795       0.03614599      -0.03587204       0.00249144       0.00969516      -0.00059028       0.00320136
N        0.43718722       2.70919598       2.15658120       0.03095464       0.01570155       0.03034815       0.03986378       0.03031215      -0.02601141
N        0.77865645       2.11244751      -1.18794097      -0.00367543      -0.02980636      -0.00363502       0.03595960       0.00624904       0.00319499
H        0.91357265       3.11292869      -1.10289080      -0.00960896      -0.05134029       0.01412902       0.09361466      -0.00124053       0.02971574
H       -0.22198186       1.94341002      -1.20390300       0.01910256       0.06327062      -0.04955711       0.02100881       0.07299229      -0.02157477
18
Properties=species:S:1:pos:R:3:mp2_forces:R:3:forces:R:3 R1=CH3 R2=CH3 R3=CN R4=NH2 lg=F nu=F rxn-id=2228 mp2_energy=-13717.022946661327 energy=-13716.558015733968 free_energy=-13717.022952231335 pbc="F F F"
C        0.84628496      -0.00945200      -0.00282056       0.00920646       0.05149138      -0.03581426      -0.17886609      -0.00794569      -0.00867106
C        1.32810600       1.45376118       0.00237247      -0.05125181       0.02698378       0.01069017      -0.05197874      -0.06311164       0.00064288
H        2.42991532       1.40585239      -0.00000485      -0.09275754       0.01066234       0.03579657      -0.03236544      -0.29510052       0.02141418
F       -0.59212641       0.13588051      -0.09775048      -0.03271735      -0.00919369       0.01258532      -0.13804112      -0.02968182      -0.00243324
F        3.48857234      -0.05495293       0.26501474       0.01008159      -0.02445903      -0.00224106       0.18033973       0.03148773      -0.01315938
C        1.25878913      -0.77062955      -1.25048029       0.00905629      -0.00823251      -0.01875228      -0.05504055       0.01557366       0.01836213
H        0.47469091      -1.51023993      -1.44032287      -0.03265854      -0.03685562       0.00448682       0.07704425      -0.11850708      -0.04378166
H        1.32896037      -0.09361333      -2.10311681       0.01054890       0.01222532      -0.03176551      -0.06634607       0.00458939       0.00773444
H        2.22956893      -1.23201298      -1.09042452       0.04127873      -0.01100162       0.02138742       0.02146924       0.19330909       0.14167018
C        1.07411333      -0.79368569       1.27830270      -0.01021373       0.03928741      -0.03896755      -0.03737459       0.01479952      -0.01988747
H        2.00075264      -1.35474172       1.22153563      -0.00156601       0.02770470       0.02691151       0.06963735       0.18188117      -0.11762223
H        1.13827374      -0.13865367       2.14872990       0.00472149      -0.01840046       0.02497423      -0.05638395       0.01857264      -0.02058662
H        0.20037590      -1.44176198       1.39702156       0.06335272      -0.02216547      -0.00306787       0.07317158      -0.13000480       0.06187144
C        0.84176450       2.11232163       1.23056083       0.03614599      -0.03587204       0.00249144       0.00714615       0.01159913       0.01279006
N        0.40983340       2.68693516       2.16171175       0.03095464       0.01570155       0.03034815       0.04840455       0.03748476      -0.03810884
N        0.76604516       2.10815438      -1.19015896      -0.00367543      -0.02980636      -0.00363502       0.03345635       0.02067420       0.00398694
H        0.85608060       3.11397062      -1.11262327      -0.00960896      -0.05134029       0.01412902       0.09441819       0.01488478       0.04448264
H       -0.22452673       1.89077715      -1.19556838       0.01910256       0.06327062      -0.04955711       0.01130914       0.09949546      -0.04870438
18
Properties=species:S:1:pos:R:3:mp2_forces:R:3:forces:R:3 R1=CH3 R2=CH3 R3=CN R4=NH2 lg=F nu=F rxn-id=2228 mp2_energy=-13717.022946661327 energy=-13716.39263753453 free_energy=-13717.022952231335 pbc="F F F"
C        0.90895435      -0.00617862       0.00160410       0.00920646       0.05149138      -0.03581426      -0.32777304       0.00449746      -0.01890794
C        1.34842684       1.47584251       0.00249596      -0.05125181       0.02698378       0.01069017      -0.07163333      -0.07187038       0.00180026
H        2.44330104       1.50866131      -0.00546979      -0.09275754       0.01066234       0.03579657      -0.02026960      -0.41497055       0.01768933
F       -0.54395483       0.14865951      -0.09404786      -0.03271735      -0.00919369       0.01258532      -0.13692707      -0.05725836      -0.00400416
F        3.42205162      -0.05725650       0.25552899       0.01008159      -0.02445903      -0.00224106       0.34508826       0.01525706       0.02511926
C        1.27805148      -0.77522777      -1.25625190       0.00905629      -0.00823251      -0.01875228      -0.07814843       0.02807199       0.02499609
H        0.44444457      -1.46188876      -1.43374935      -0.03265854      -0.03685562       0.00448682       0.07066717      -0.13785431      -0.10895925
H        1.36521194      -0.09219416      -2.10235620       0.01054890       0.01222532      -0.03176551      -0.04151889       0.00773331       0.01105800
H        2.21759943      -1.30560557      -1.13494961       0.04127873      -0.01100162       0.02138742       0.02213048       0.22780888       0.22727077
C        1.08653536      -0.79888797       1.28706030      -0.01021373       0.03928741      -0.03896755      -0.04862793       0.02611344      -0.02985135
H        1.96988651      -1.42699998       1.26103521      -0.00156601       0.02770470       0.02691151       0.08932181       0.21093847      -0.19088283
H        1.16685449      -0.14579787       2.15751048       0.00472149      -0.01840046       0.02497423      -0.01848266       0.02595777      -0.03248430
H        0.17055110      -1.39026190       1.38279272       0.06335272      -0.02216547      -0.00306787       0.06724390      -0.15093268       0.13177799
C        0.83527577       2.11276194       1.23236252       0.03614599      -0.03587204       0.00249144       0.02675473       0.02643285       0.00103515
N        0.39282615       2.66973504       2.16884109       0.03095464       0.01570155       0.03034815       0.02665551       0.04508044      -0.02661682
N        0.75795452       2.10040623      -1.19206002      -0.00367543      -0.02980636      -0.00363502       0.02322523       0.04175428       0.00650193
H        0.81357301       3.10884687      -1.12239626      -0.00960896      -0.05134029       0.01412902       0.07902133       0.03838454       0.04487250
H       -0.22206926       1.84329492      -1.18597180       0.01910256       0.06327062      -0.04955711      -0.00672748       0.13485579      -0.08041462
18
Properties=species:S:1:pos:R:3:mp2_forces:R:3:forces:R:3 R1=CH3 R2=CH3 R3=CN R4=NH2 lg=F nu=F rxn-id=2228 mp2_energy=-13717.022946661327 energy=-13716.077007922342 free_energy=-13717.022952231335 pbc="F F F"
C        1.01356893      -0.00834877       0.00831423       0.00920646       0.05149138      -0.03581426      -0.95223992       0.05741704      -0.06476361
C        1.37021893       1.49933363       0.00288801      -0.05125181       0.02698378       0.01069017      -0.05242854      -0.06602809       0.01040310
H        2.44749300       1.65007741      -0.00897793      -0.09275754       0.01066234       0.03579657       0.02736519      -0.49315926       0.00984554
F       -0.50120007       0.16718468      -0.09091107      -0.03271735      -0.00919369       0.01258532       0.20179821      -0.15214199       0.02104350
F        3.30570704      -0.07552457       0.23853362       0.01008159      -0.02445903      -0.00224106       0.69464033       0.01762815       0.08391406
C        1.30357894      -0.78401641      -1.26472297       0.00905629      -0.00823251      -0.01875228      -0.11192526       0.04268194       0.03160238
H        0.42146000      -1.41391721      -1.40976468      -0.03265854      -0.03685562       0.00448682       0.04320150      -0.16342976      -0.19678022
H        1.39028213      -0.09276022      -2.10389960       0.01054890       0.01222532      -0.03176551      -0.01300160       0.00566580       0.00703752
H        2.20825995      -1.38124930      -1.20211730       0.04127873      -0.01100162       0.02138742       0.00467265       0.24427883       0.29972039
C        1.10261086      -0.80736484       1.29820351      -0.01021373       0.03928741      -0.03896755      -0.06490118       0.03559056      -0.03899076
H        1.94015493      -1.49641839       1.31929555      -0.00156601       0.02770470       0.02691151       0.08958587       0.22180345      -0.25168358
H        1.18114054      -0.15314163       2.16805721       0.00472149      -0.01840046       0.02497423       0.01338778       0.02466691      -0.03675174
H        0.14894795      -1.33991506       1.35056678       0.06335272      -0.02216547      -0.00306787       0.04241489      -0.18858990       0.22484280
C        0.82219932       2.10643716       1.23433332       0.03614599      -0.03587204       0.00249144       0.06737751       0.07764501       0.00551058
N        0.38403472       2.65765131       2.17577949       0.03095464       0.01570155       0.03034815      -0.01639996       0.02626409      -0.01727624
N        0.75162497       2.08782561      -1.19431250      -0.00367543      -0.02980636      -0.00363502       0.01086926       0.06660812       0.01078009