17
Properties=species:S:1:pos:R:3:mp2_forces:R:3:forces:R:3 R1=NO2 R2=NH2 R3=CN R4=CH3 lg=F nu=F rxn-id=1144 mp2_energy=-18206.276139876114 energy=-18206.276132410127 free_energy=-18206.276132410127 pbc="F F F"
C        0.48509969      -0.10194301       0.05618669      -0.01012508       0.00486890      -0.00264853      -0.01015495       0.00487991      -0.00265542
C        0.89199659       1.37170158      -0.05745210       0.00185073      -0.01283181      -0.01083282       0.00188109      -0.01288519      -0.01088372
H        1.99106617       1.30185138       0.02851051      -0.00137197      -0.04171880      -0.00667728      -0.00135924      -0.04171213      -0.00668055
F       -0.89663704      -0.22553777       0.16792104      -0.00428998       0.03149271      -0.01384830      -0.00429310       0.03148197      -0.01385131
F        3.14731594      -0.06293967      -0.30257642       0.06845797       0.03137866       0.06472703       0.06844181       0.03138165       0.06472475
N        0.71556460      -0.92785902      -1.26088996      -0.00280604       0.00396955      -0.00189766      -0.00284646       0.00393259      -0.00181361
O        0.57630217      -0.38912673      -2.35265749      -0.01471240       0.00487475       0.00036670      -0.01466196       0.00489541       0.00032896
O        0.90135220      -2.12854270      -1.09725986       0.00834172       0.00534447       0.00050960       0.00836010       0.00537054       0.00048408
N        1.14162310      -0.67741719       1.13480397      -0.01544436      -0.00604435      -0.01117182      -0.01545039      -0.00603669      -0.01119047
H        2.14814019      -0.57929168       0.81694923      -0.01443220       0.02107575       0.00535941      -0.01442223       0.02106542       0.00536849
H        0.89361773      -1.65873673       1.18285529       0.00141906      -0.01058844      -0.01948839       0.00142165      -0.01058937      -0.01948277
C        0.31066792       2.03938848       1.10929157      -0.00133859       0.00692758       0.02870339      -0.00136333       0.00701772       0.02879170
N       -0.17168887       2.65237831       1.98853551       0.04485359      -0.01622451      -0.02754393       0.04485106      -0.01628232      -0.02758831
C        0.52835701       2.16480103      -1.31676859      -0.01247253      -0.00536424      -0.00257732      -0.01246671      -0.00538311      -0.00256976
H        1.19539510       1.88628674      -2.12786035      -0.02330567      -0.01621519      -0.00889957      -0.02330244      -0.01621471      -0.00890203
H       -0.50208687       1.98871594      -1.62860692      -0.01954890       0.00378769       0.00660493      -0.01956181       0.00378994       0.00660176
H        0.65256379       3.23039833      -1.10555303      -0.00507534      -0.00473270      -0.00068545      -0.00507309      -0.00471162      -0.00068180
17
Properties=species:S:1:pos:R:3:mp2_forces:R:3:forces:R:3 R1=NO2 R2=NH2 R3=CN R4=CH3 lg=F nu=F rxn-id=1144 mp2_energy=-18206.276139876114 energy=-18206.271087752935 free_energy=-18206.276132410127 pbc="F F F"
C        0.49755063      -0.08966457       0.05349428      -0.01012508       0.00486890      -0.00264853      -0.01922665      -0.00832404      -0.00199908
C        0.90916180       1.38102827      -0.05441424       0.00185073      -0.01283181      -0.01083282      -0.00762338      -0.01007004      -0.00565409
H        2.00702873       1.31150200       0.02673981      -0.00137197      -0.04171880      -0.00667728      -0.00564955      -0.02913870      -0.01612876
F       -0.88573957      -0.20060801       0.14532450      -0.00428998       0.03149271      -0.01384830      -0.02205585      -0.00524473      -0.01304259
F        3.11396477      -0.10505033      -0.36578692       0.06845797       0.03137866       0.06472703       0.04273767       0.02519570       0.08899931
N        0.74439419      -0.91717764      -1.25650082      -0.00280604       0.00396955      -0.00189766      -0.01344718      -0.00675964      -0.00504275
O        0.58596051      -0.38725721      -2.35033317      -0.01471240       0.00487475       0.00036670      -0.00965644      -0.00696927      -0.00601847
O        0.95046661      -2.11303254      -1.08679742       0.00834172       0.00534447       0.00050960       0.00172112      -0.00501350      -0.00729428
N        1.13375229      -0.67058589       1.14409531      -0.01544436      -0.00604435      -0.01117182      -0.01851610      -0.00414834      -0.00564211
H        2.13714105      -0.61815251       0.81871003      -0.01443220       0.02107575       0.00535941      -0.00788991       0.04990990       0.01639479
H        0.84576484      -1.63901839       1.21550330       0.00141906      -0.01058844      -0.01948839       0.03200855      -0.02965811      -0.04657653
C        0.32146427       2.03983021       1.11429943      -0.00133859       0.00692758       0.02870339       0.01514379       0.00472252       0.00458752
N       -0.18394003       2.63629825       1.99144447       0.04485359      -0.01622451      -0.02754393       0.05073482       0.02272322      -0.00353329
C        0.52363467       2.16582116      -1.31231974      -0.01247253      -0.00536424      -0.00257732      -0.00978209      -0.00223971      -0.00028808
H        1.18790987       1.89249024      -2.12722048      -0.02330567      -0.01621519      -0.00889957      -0.01854457      -0.00384492      -0.00787605
H       -0.50564122       1.96257878      -1.61147067      -0.01954890       0.00378769       0.00660493      -0.01535063       0.01306567       0.00460956
H        0.62577600       3.23512546      -1.10933857      -0.00507534      -0.00473270      -0.00068545       0.00539642      -0.00420601       0.00450492
17
Properties=species:S:1:pos:R:3:mp2_forces:R:3:forces:R:3 R1=NO2 R2=NH2 R3=CN R4=CH3 lg=F nu=F rxn-id=1144 mp2_energy=-18206.276139876114 energy=-18206.24547912076 free_energy=-18206.276132410127 pbc="F F F"
C        0.51469908      -0.08498232       0.05407298      -0.01012508       0.00486890      -0.00264853      -0.03007985      -0.01150455      -0.00007278
C        0.91424541       1.38935081      -0.04920893       0.00185073      -0.01283181      -0.01083282      -0.01126105      -0.01278274      -0.00373202
H        2.00984918       1.33622834       0.03866067      -0.00137197      -0.04171880      -0.00667728      -0.00881547      -0.04423784      -0.01917731
F       -0.86804753      -0.19970423       0.15034403      -0.00428998       0.03149271      -0.01384830      -0.03555636      -0.00606633      -0.01048824
F        3.06761292      -0.12658728      -0.45267658       0.06845797       0.03137866       0.06472703       0.05622883       0.02695328       0.10913671
N        0.76235186      -0.91275063      -1.25110283      -0.00280604       0.00396955      -0.00189766      -0.02362730      -0.00803071      -0.00201078
O        0.60277904      -0.38452660      -2.34513754      -0.01471240       0.00487475       0.00036670      -0.00755382      -0.00838617      -0.00473979
O        0.95694731      -2.10971820      -1.07828004       0.00834172       0.00534447       0.00050960      -0.00786040      -0.00667881      -0.00533923
N        1.14630637      -0.66612240       1.15150335      -0.01544436      -0.00604435      -0.01117182      -0.02337144      -0.00309275      -0.00560250
H        2.13960334      -0.66362920       0.81082562      -0.01443220       0.02107575       0.00535941      -0.00627755       0.08710042       0.01008730
H        0.81369555      -1.61680308       1.25485398       0.00141906      -0.01058844      -0.01948839       0.05635387      -0.05207849      -0.07152561
C        0.30816065       2.03982507       1.11537333      -0.00133859       0.00692758       0.02870339       0.01455744       0.00903991       0.00782918
N       -0.21451275       2.62266486       1.99145779       0.04485359      -0.01622451      -0.02754393       0.05659490       0.03096441      -0.00752942
C        0.52962407       2.16892084      -1.31061964      -0.01247253      -0.00536424      -0.00257732      -0.00869357      -0.00405429       0.00080792
H        1.20230272       1.89857382      -2.11959241      -0.02330567      -0.01621519      -0.00889957      -0.01616431      -0.00680664      -0.00622059
H       -0.49541601       1.95350551      -1.61536855      -0.01954890       0.00378769       0.00660493      -0.01502833       0.01605364       0.00199995
H        0.61844821       3.23988200      -1.10967612      -0.00507534      -0.00473270      -0.00068545       0.01055442      -0.00639233       0.00657721
17
Properties=species:S:1:pos:R:3:mp2_forces:R:3:forces:R:3 R1=NO2 R2=NH2 R3=CN R4=CH3 lg=F nu=F rxn-id=1144 mp2_energy=-18206.276139876114 energy=-18206.20887604438 free_energy=-18206.276132410127 pbc="F F F"
C        0.53750467      -0.08050192       0.05229640      -0.01012508       0.00486890      -0.00264853      -0.04738083      -0.01378634       0.00244859
C        0.92132462       1.39847892      -0.04555382       0.00185073      -0.01283181      -0.01083282      -0.01570641      -0.01656780      -0.00083085
H        2.01433610       1.36742202       0.05227001      -0.00137197      -0.04171880      -0.00667728      -0.01155225      -0.06907482      -0.02584861
F       -0.84530519      -0.19851742       0.15666823      -0.00428998       0.03149271      -0.01384830      -0.05543805      -0.00583275      -0.00631786
F        3.02672649      -0.13569468      -0.52990072       0.06845797       0.03137866       0.06472703       0.06861587       0.02236022       0.12540224
N        0.77862067      -0.90894701      -1.24907640      -0.00280604       0.00396955      -0.00189766      -0.03389937      -0.00712503       0.00367143
O        0.60946387      -0.38303855      -2.34245667      -0.01471240       0.00487475       0.00036670      -0.00386232      -0.00704785      -0.00104488
O        0.96084045      -2.10734635      -1.07382602       0.00834172       0.00534447       0.00050960      -0.00999024      -0.00488600      -0.00193897
N        1.16295888      -0.66437906       1.15633862      -0.01544436      -0.00604435      -0.01117182      -0.03236322      -0.00097390      -0.00312386
H        2.14394949      -0.72518229       0.80730497      -0.01443220       0.02107575       0.00535941      -0.00390562       0.14065484      -0.00245281
H        0.77352652      -1.58714247       1.30058305       0.00141906      -0.01058844      -0.01948839       0.08398470      -0.08386947      -0.09685473
C        0.29434147       2.03793391       1.11496324      -0.00133859       0.00692758       0.02870339       0.01643324       0.01438182       0.01074884
N       -0.24562541       2.60514619       1.99070746       0.04485359      -0.01622451      -0.02754393       0.06027929       0.04017426      -0.01104752
C        0.53549070       2.17215534      -1.31015361      -0.01247253      -0.00536424      -0.00257732      -0.00650622      -0.00665135       0.00250214
H        1.21447315       1.90398869      -2.11460635      -0.02330567      -0.01621519      -0.00889957      -0.01238564      -0.01082803      -0.00327273
H       -0.48598818       1.94503071      -1.61800340      -0.01954890       0.00378769       0.00660493      -0.01356364       0.01867922      -0.00102452
H        0.61201113       3.24472124      -1.11212591      -0.00507534      -0.00473270      -0.00068545       0.01724072      -0.00960702       0.00898407
17
Properties=species:S:1:pos:R:3:mp2_forces:R:3:forces:R:3 R1=NO2 R2=NH2 R3=CN R4=CH3 lg=F nu=F rxn-id=1144 mp2_energy=-18206.276139876114 energy=-18206.16020037314 free_energy=-18206.276132410127 pbc="F F F"
C        0.56596228      -0.07591794       0.04875424      -0.01012508       0.00486890      -0.00264853      -0.07308863      -0.01452365       0.00588165
C        0.93108288       1.40872520      -0.04293207       0.00185073      -0.01283181      -0.01083282      -0.02450991      -0.02184772       0.00305293
H        2.02085092       1.40543628       0.06824182      -0.00137197      -0.04171880      -0.00667728      -0.01583141      -0.10876824      -0.03642794
F       -0.81795643      -0.19510140       0.16454027      -0.00428998       0.03149271      -0.01384830      -0.08355431      -0.00867959      -0.00136620
F        2.99369109      -0.13216468      -0.58998264       0.06845797       0.03137866       0.06472703       0.07926532       0.00499478       0.12120357
N        0.79130505      -0.90575192      -1.25025697      -0.00280604       0.00396955      -0.00189766      -0.03878063      -0.00209086       0.01243227
O        0.60497986      -0.38265231      -2.34207858      -0.01471240       0.00487475       0.00036670       0.00758566      -0.00112513       0.00541789
O        0.95961617      -2.10608138      -1.07363891       0.00834172       0.00534447       0.00050960       0.00289416       0.00265717       0.00362466
N        1.18341201      -0.66668763       1.15806885      -0.01544436      -0.00604435      -0.01117182      -0.04618519       0.00538636       0.00265354
H        2.14906756      -0.80078693       0.80813143      -0.01443220       0.02107575       0.00535941      -0.00082150       0.20518832      -0.02326923
H        0.73051806      -1.55148027       1.34479331       0.00141906      -0.01058844      -0.01948839       0.10782122      -0.11886413      -0.10992721
C        0.28034816       2.03478621       1.11297495      -0.00133859       0.00692758       0.02870339       0.02012563       0.02119725       0.01426407
N       -0.27724621       2.58515933       1.98830014       0.04485359      -0.01622451      -0.02754393       0.06223131       0.05046253      -0.01231959
C        0.54110945       2.17471114      -1.31086281      -0.01247253      -0.00536424      -0.00257732      -0.00384652      -0.00894721       0.00532946
H        1.22318929       1.90701402      -2.11291445      -0.02330567      -0.01621519      -0.00889957      -0.00641024      -0.01504355       0.00246194
H       -0.47787463       1.93586253      -1.61766891      -0.01954890       0.00378769       0.00660493      -0.01196016       0.02283936      -0.00637018
H        0.60659391       3.24905704      -1.11804059      -0.00507534      -0.00473270      -0.00068545       0.02506522      -0.01283570       0.01335837
17
Properties=species:S:1:pos:R:3:mp2_forces:R:3:forces:R:3 R1=NO2 R2=NH2 R3=CN R4=CH3 lg=F nu=F rxn-id=1144 mp2_energy=-18206.276139876114 energy=-18206.097802161297 free_energy=-18206.276132410127 pbc="F F F"
C        0.59922976      -0.07059487       0.04384333      -0.01012508       0.00486890      -0.00264853      -0.10582585      -0.01495485       0.01168434
C        0.94471203       1.42043256      -0.04126507       0.00185073      -0.01283181      -0.01083282      -0.04157206      -0.02866266       0.00843635
H        2.03031075       1.44974575       0.08504973      -0.00137197      -0.04171880      -0.00667728      -0.02419812      -0.16706520      -0.04769626
F       -0.78715914      -0.18729177       0.17288134      -0.00428998       0.03149271      -0.01384830      -0.12219719      -0.01779359       0.00293291
F        2.96666507      -0.12274141      -0.62777150       0.06845797       0.03137866       0.06472703       0.09753070      -0.02704267       0.08994378
N        0.80028623      -0.90278323      -1.25412267      -0.00280604       0.00396955      -0.00189766      -0.03525013       0.00759361       0.02491948
O        0.59374468      -0.38220498      -2.34365800      -0.01471240       0.00487475       0.00036670       0.03021731       0.00802976       0.01498570
O        0.95227947      -2.10555350      -1.07730209       0.00834172       0.00534447       0.00050960       0.02959108       0.01567739       0.01229484
N        1.20642904      -0.67203109       1.15709165      -0.01544436      -0.00604435      -0.01117182      -0.06570716       0.01719852       0.01009286
H        2.15245243      -0.88480969       0.81115037      -0.01443220       0.02107575       0.00535941       0.00523421       0.27535073      -0.05493111
H        0.68890758      -1.51050376       1.38291333       0.00141906      -0.01058844      -0.01948839       0.12441041      -0.15451311      -0.10457742
C        0.26824430       2.03072832       1.10973907      -0.00133859       0.00692758       0.02870339       0.02398462       0.03037783       0.01913655
N       -0.30840781       2.56177467       1.98450985       0.04485359      -0.01622451      -0.02754393       0.06443297       0.06524033      -0.00993175
C        0.54580367       2.17613463      -1.31243829      -0.01247253      -0.00536424      -0.00257732      -0.00231043      -0.00975814       0.00947865
H        1.22719457       1.90831610      -2.11511086      -0.02330567      -0.01621519      -0.00889957       0.00131597      -0.01815780       0.01083812
H       -0.47150992       1.92292502      -1.61243681      -0.01954890       0.00378769       0.00660493      -0.01237298       0.03277321      -0.01776472
H        0.59946671       3.25258454      -1.12764427      -0.00507534      -0.00473270      -0.00068545       0.03271665      -0.01429336       0.02015770
17
Properties=species:S:1:pos:R:3:mp2_forces:R:3:forces:R:3 R1=NO2 R2=NH2 R3=CN R4=CH3 lg=F nu=F rxn-id=1144 mp2_energy=-18206.276139876114 energy=-18206.022292522895 free_energy=-18206.276132410127 pbc="F F F"
C        0.63375877      -0.06592454       0.03691459      -0.01012508       0.00486890      -0.00264853      -0.14017867      -0.01588113       0.02472170
C        0.95905459       1.43185572      -0.04176730       0.00185073      -0.01283181      -0.01083282      -0.05950400      -0.03589464       0.01226963
H        2.03957320       1.49661864       0.09862784      -0.00137197      -0.04171880      -0.00667728      -0.02889360      -0.23818840      -0.05964707
F       -0.75643101      -0.17927506       0.17785711      -0.00428998       0.03149271      -0.01384830      -0.16643851      -0.02448215       0.00497607
F        2.94310445      -0.11879859      -0.64870414       0.06845797       0.03137866       0.06472703       0.12516892      -0.05379883       0.05068160
N        0.80867783      -0.90099163      -1.26006144      -0.00280604       0.00396955      -0.00189766      -0.02373926       0.02072171       0.04012507
O        0.58491090      -0.38151704      -2.34706065      -0.01471240       0.00487475       0.00036670       0.05753089       0.01741310       0.02675744
O        0.94287658      -2.10627267      -1.08381154       0.00834172       0.00534447       0.00050960       0.05885929       0.03094964       0.02504742
N        1.22818535      -0.67679246       1.15556216      -0.01544436      -0.00604435      -0.01117182      -0.08904258       0.03019898       0.01440831
H        2.15106183      -0.96727063       0.81935959      -0.01443220       0.02107575       0.00535941       0.01277527       0.33569339      -0.10324150
H        0.65102801      -1.46411522       1.41617205       0.00141906      -0.01058844      -0.01948839       0.13361225      -0.19250032      -0.08166227
C        0.25992015       2.02515249       1.10610421      -0.00133859       0.00692758       0.02870339       0.02686829       0.04563228       0.03092637
N       -0.33113916       2.53690503       1.98266553       0.04485359      -0.01622451      -0.02754393       0.06514275       0.07792260      -0.01179912
C        0.54758194       2.17761709      -1.31454957      -0.01247253      -0.00536424      -0.00257732      -0.00262319      -0.00846200       0.01338807
H        1.22637831       1.91270177      -2.12050820      -0.02330567      -0.01621519      -0.00889957       0.00763976      -0.02197849       0.02058431
H       -0.46810328       1.90853232      -1.60524103      -0.01954890       0.00378769       0.00660493      -0.01421372       0.04545752      -0.03121483
H        0.58821095       3.25570207      -1.13613013      -0.00507534      -0.00473270      -0.00068545       0.03703613      -0.01280328       0.02367879
17
Properties=species:S:1:pos:R:3:mp2_forces:R:3:forces:R:3 R1=NO2 R2=NH2 R3=CN R4=CH3 lg=F nu=F rxn-id=1144 mp2_energy=-18206.276139876114 energy=-18205.936502445467 free_energy=-18206.276132410127 pbc="F F F"
C        0.66918517      -0.06407348       0.02778573      -0.01012508       0.00486890      -0.00264853      -0.19811267      -0.01382419       0.05497118
C        0.97061296       1.44122300      -0.04356641       0.00185073      -0.01283181      -0.01083282      -0.06969839      -0.04343395       0.01140254
H        2.04449076       1.54620029       0.11058343      -0.00137197      -0.04171880      -0.00667728      -0.01868170      -0.31622759      -0.07519092
F       -0.72702161      -0.17490706       0.17802357      -0.00428998       0.03149271      -0.01384830      -0.20634553      -0.02655386       0.01275426
F        2.91852640      -0.11642508      -0.66453157       0.06845797       0.03137866       0.06472703       0.16892716      -0.06993342       0.01502991
N        0.81666863      -0.90270387      -1.26710949      -0.00280604       0.00396955      -0.00189766      -0.00411114       0.03734987       0.05445112
O        0.57796225      -0.38354521      -2.35136704      -0.01471240       0.00487475       0.00036670       0.08515138       0.02887836       0.03583206
O        0.93263192      -2.11025762      -1.09113872       0.00834172       0.00534447       0.00050960       0.09014394       0.04787795       0.04018558
N        1.24702591      -0.68164357       1.15535471      -0.01544436      -0.00604435      -0.01117182      -0.11589855       0.04577993       0.01030655
H        2.14752197      -1.04181596       0.84026591      -0.01443220       0.02107575       0.00535941       0.01115264       0.38397604      -0.18139695
H        0.61953401      -1.42040532       1.43931101       0.00141906      -0.01058844      -0.01948839       0.13621218      -0.22803709      -0.03765126
C        0.25256722       2.01771325       1.10251261      -0.00133859       0.00692758       0.02870339       0.03214790       0.07233759       0.04572218
N       -0.34228168       2.51832818       1.98286784       0.04485359      -0.01622451      -0.02754393       0.05458803       0.07701594      -0.01665053
C        0.54720213       2.17966656      -1.31658018      -0.01247253      -0.00536424      -0.00257732      -0.00256231      -0.00697314       0.01501259
H        1.22365247       1.91957941      -2.12630830      -0.02330567      -0.01621519      -0.00889957       0.01181382      -0.02828432       0.03092918
H       -0.46712851       1.89868019      -1.60027483      -0.01954890       0.00378769       0.00660493      -0.01225848       0.05090270      -0.03617488
H        0.57749941       3.25851358      -1.14039918      -0.00507534      -0.00473270      -0.00068545       0.03753171      -0.01085082       0.02046740
17
Properties=species:S:1:pos:R:3:mp2_forces:R:3:forces:R:3 R1=NO2 R2=NH2 R3=CN R4=CH3 lg=F nu=F rxn-id=1144 mp2_energy=-18206.276139876114 energy=-18205.816328985456 free_energy=-18206.276132410127 pbc="F F F"
C        0.71551912      -0.06407843       0.01490983      -0.01012508       0.00486890      -0.00264853      -0.36198722      -0.01216218       0.11834729
C        0.98327746       1.45062951      -0.04543809       0.00185073      -0.01283181      -0.01083282      -0.07642129      -0.05078681       0.01325429
H        2.04701687       1.60704317       0.12485800      -0.00137197      -0.04171880      -0.00667728       0.00430524      -0.39447111      -0.08870342
F       -0.69353370      -0.17055195       0.17569043      -0.00428998       0.03149271      -0.01384830      -0.21689149      -0.02806002       0.03289709
F        2.88378671      -0.10524337      -0.67347513       0.06845797       0.03137866       0.06472703       0.28456433      -0.08770963      -0.05846787
N        0.81987293      -0.90868012      -1.27641688      -0.00280604       0.00396955      -0.00189766       0.03645589       0.05865969       0.06731298
O        0.56433203      -0.38979190      -2.35704601      -0.01471240       0.00487475       0.00036670       0.11735703       0.04107301       0.03945731
O        0.91589565      -2.11822773      -1.09951562       0.00834172       0.00534447       0.00050960       0.12837460       0.06462778       0.05015831
N        1.26811603      -0.68912620       1.15553032      -0.01544436      -0.00604435      -0.01117182      -0.15648161       0.06596452      -0.00067849
H        2.14621465      -1.11699017       0.87701161      -0.01443220       0.02107575       0.00535941      -0.00669787       0.42218219      -0.28348586
H        0.59184025      -1.37935146       1.44799917       0.00141906      -0.01058844      -0.01948839       0.13296237      -0.26797628       0.04360187
C        0.24329959       2.00658755       1.09815552      -0.00133859       0.00692758       0.02870339       0.05433635       0.11310653       0.04174657
N       -0.34927300       2.50401379       1.98145797       0.04485359      -0.01622451      -0.02754393       0.02036225       0.07146001      -0.00063166
C        0.54735802       2.18137835      -1.31829653      -0.01247253      -0.00536424      -0.00257732      -0.00095510      -0.00605294       0.01408790
H        1.22120274       1.92562455      -2.13178678      -0.02330567      -0.01621519      -0.00889957       0.01595174      -0.03536961       0.03739827
H       -0.46593644       1.89016824      -1.59486637      -0.01954890       0.00378769       0.00660493      -0.00851477       0.05359135      -0.03842011
H        0.56966050       3.26072347      -1.14334234      -0.00507534      -0.00473270      -0.00068545       0.03327954      -0.00807651       0.01212552
17
Properties=species:S:1:pos:R:3:mp2_forces:R:3:forces:R:3 R1=NO2 R2=NH2 R3=CN R4=CH3 lg=F nu=F rxn-id=1144 mp2_energy=-18206.276139876114 energy=-18205.622887194677 free_energy=-18206.276132410127 pbc="F F F"
C        0.78716400      -0.06463426      -0.00544783      -0.01012508       0.00486890      -0.00264853      -0.82605454      -0.02574286       0.24093036
C        0.99726612       1.46053450      -0.04784424       0.00185073      -0.01283181      -0.01083282      -0.06391445      -0.04739657       0.01807560
H        2.04650456       1.67698085       0.14051155      -0.00137197      -0.04171880      -0.00667728       0.03437668      -0.41783064      -0.08588712
F       -0.65985165      -0.16575095       0.17105568      -0.00428998       0.03149271      -0.01384830      -0.03971700      -0.01301829       0.04649381
F        2.83072339      -0.08839418      -0.66443684       0.06845797       0.03137866       0.06472703       0.50523135      -0.09001401      -0.19105151
N        0.81355010      -0.91857720      -1.28806150      -0.00280604       0.00396955      -0.00189766       0.11673836       0.07169055       0.05933455
O        0.54329932      -0.39846424      -2.36390951      -0.01471240       0.00487475       0.00036670       0.13736608       0.04035686       0.02385075
O        0.89238168      -2.12889721      -1.10868137       0.00834172       0.00534447       0.00050960       0.14902913       0.06341328       0.03837616
N        1.29519796      -0.69770704       1.15470428      -0.01544436      -0.00604435      -0.01117182      -0.20509133       0.08093552      -0.01166466
H        2.14902692      -1.19206641       0.92682724      -0.01443220       0.02107575       0.00535941      -0.03358909       0.41023030      -0.35649611
H        0.56734051      -1.33568737       1.43982878       0.00141906      -0.01058844      -0.01948839       0.12644792      -0.31091339       0.16668045
C        0.23141795       1.98857676       1.09302785      -0.00133859       0.00692758       0.02870339       0.09740996       0.16618764       0.01537115
N       -0.35250307       2.49175601       1.97818958       0.04485359      -0.01622451      -0.02754393      -0.03353725       0.05784516       0.03370001
C        0.54804636       2.18236797      -1.31977034      -0.01247253      -0.00536424      -0.00257732       0.00330392      -0.00035684       0.00818551
H        1.21896955       1.93144435      -2.13733763      -0.02330567      -0.01621519      -0.00889957       0.01832996      -0.04001008       0.03511572
H       -0.46412465       1.88068964      -1.58788196      -0.01954890       0.00378769       0.00660493      -0.00635240       0.05563651      -0.04121944
H        0.56424037       3.26195608      -1.14534466      -0.00507534      -0.00473270      -0.00068545       0.02002270      -0.00101314       0.00020478
17
Properties=species:S:1:pos:R:3:mp2_forces:R:3:forces:R:3 R1=NO2 R2=NH2 R3=CN R4=CH3 lg=F nu=F rxn-id=1144 mp2_energy=-18206.276139876114 energy=-18205.394509817404 free_energy=-18206.276132410127 pbc="F F F"
C        0.87945267      -0.06410763      -0.02967008      -0.01012508       0.00486890      -0.00264853      -1.21593188      -0.04186286       0.31603442
C        1.00451740       1.46632669      -0.04971701       0.00185073      -0.01283181      -0.01083282      -0.02264940      -0.01995643       0.01166091
H        2.04271924       1.72352547       0.15022847      -0.00137197      -0.04171880      -0.00667728       0.04197402      -0.30594014      -0.05900844
F       -0.65563659      -0.16412545       0.16608016      -0.00428998       0.03149271      -0.01384830       0.29445618       0.02009819       0.02269562
F        2.77472552      -0.07862779      -0.64302216       0.06845797       0.03137866       0.06472703       0.56440367      -0.05982687      -0.23825343
N        0.80029395      -0.92632729      -1.29445177      -0.00280604       0.00396955      -0.00189766       0.16203239       0.04594990       0.00893522
O        0.52820070      -0.40295182      -2.36683145      -0.01471240       0.00487475       0.00036670       0.10638355       0.01767510      -0.00631013