17
Properties=species:S:1:pos:R:3:mp2_forces:R:3:forces:R:3 R1=NO2 R2=CH3 R3=CH3 R4=H lg=Br nu=F rxn-id=1066 mp2_energy=-82563.043379038 energy=-82563.04338232648 free_energy=-82563.04338232648 pbc="F F F"
C        0.27248854      -0.04820269       0.04520281       0.06690679      -0.01071740      -0.02662328       0.06694070      -0.01070879      -0.02661516
C        0.69219492       1.40305957       0.03838254       0.01246685      -0.00518097      -0.00089665       0.01245640      -0.00517751      -0.00090357
H        1.78725531       1.27496913      -0.04583434       0.02145601       0.02151944       0.00009860       0.02145937       0.02151212       0.00010071
Br      -1.71255870      -0.20774052      -0.26640756       0.07993317       0.01670213       0.01341957       0.07992215       0.01670140       0.01341637
F        2.97831912      -0.08536965       0.09432873       0.01246386       0.05850842       0.07450423       0.01246207       0.05851082       0.07450623
H        0.29875182       1.89903303      -0.84992796      -0.03133949      -0.02061072       0.00543351      -0.03133998      -0.02061311       0.00543467
N        0.86240163      -0.74410787      -1.18719150      -0.04395842      -0.07029099       0.03016371      -0.04395704      -0.07036187       0.03015375
O        1.06939615      -0.04863429      -2.17182967      -0.04853689       0.01750072      -0.03192324      -0.04853763       0.01753032      -0.03192347
O        0.98588971      -1.96171010      -1.14677106      -0.02358042       0.05674191       0.01210083      -0.02358788       0.05677569       0.01211797
C        0.64073748      -0.79996768       1.29506807       0.01746641      -0.01121263      -0.00750239       0.01745928      -0.01122376      -0.00750091
H        1.71499920      -0.58856955       1.39113629       0.05342471      -0.06678542      -0.04674945       0.05342473      -0.06678209      -0.04675778
H        0.04367872      -0.45205537       2.13930505       0.00529890       0.03480019      -0.00000957       0.00529812       0.03480339      -0.00001132
H        0.49144060      -1.86814513       1.15375042      -0.07061207      -0.01287005       0.00343065      -0.07061112      -0.01286128       0.00342782
C        0.32104332       2.14686857       1.31458248      -0.01051198       0.00083412      -0.00253583      -0.01051581       0.00083564      -0.00253260
H       -0.73094161       2.01962360       1.58924356      -0.02382996       0.00489486      -0.01789601      -0.02383019       0.00489386      -0.01789753
H        0.94157662       1.81065934       2.14777276      -0.02445217      -0.02284560       0.00433748      -0.02444893      -0.02284813       0.00433859
H        0.50379599       3.21751847       1.18494012       0.00740470       0.00901198      -0.00935217       0.00740576       0.00901330      -0.00935378
17
Properties=species:S:1:pos:R:3:mp2_forces:R:3:forces:R:3 R1=NO2 R2=CH3 R3=CH3 R4=H lg=Br nu=F rxn-id=1066 mp2_energy=-82563.043379038 energy=-82563.0546570082 free_energy=-82563.04338232648 pbc="F F F"
C        0.27952645      -0.04928963       0.03524601       0.06690679      -0.01071740      -0.02662328      -0.01854042      -0.00250148      -0.00181997
C        0.67020664       1.41269464       0.01078793       0.01246685      -0.00518097      -0.00089665      -0.00008217      -0.00842638       0.00375730
H        1.75988406       1.33271066      -0.13093412       0.02145601       0.02151944       0.00009860       0.00609286      -0.03062522       0.02970613
Br      -1.70171997      -0.22089703      -0.30137471       0.07993317       0.01670213       0.01341957      -0.01398559       0.00349487       0.00624916
F        2.96846203      -0.01072623       0.20655421       0.01246386       0.05850842       0.07450423       0.03889665       0.03881566       0.03055668
H        0.19578840       1.89986168      -0.84273676      -0.03133949      -0.02061072       0.00543351       0.02636214      -0.00192255      -0.00844711
N        0.87923204      -0.75054304      -1.18354934      -0.04395842      -0.07029099       0.03016371      -0.01376768       0.00090830      -0.00208032
O        1.06215068      -0.06811607      -2.18361485      -0.04853689       0.01750072      -0.03192324      -0.01523678       0.00013405      -0.00333431
O        1.04174500      -1.96221602      -1.12123079      -0.02358042       0.05674191       0.01210083       0.00219507       0.00315536       0.00364576
C        0.61482245      -0.80362295       1.29319292       0.01746641      -0.01121263      -0.00750239       0.00499481      -0.00385209      -0.01011338
H        1.69117753      -0.61260263       1.41397456       0.05342471      -0.06678542      -0.04674945       0.02023698      -0.02374619      -0.06147391
H        0.00019086      -0.43822991       2.11766800       0.00529890       0.03480019      -0.00000957       0.05171299       0.02774735       0.01316522
H        0.43160272      -1.86654659       1.14879048      -0.07061207      -0.01287005       0.00343065      -0.03447426      -0.00045870       0.00965556
C        0.36399361       2.13129397       1.31730292      -0.01051198       0.00083412      -0.00253583      -0.01243867      -0.00182431      -0.00175541
H       -0.66930205       1.98825916       1.65007719      -0.02382996       0.00489486      -0.01789601      -0.01921283       0.01000684      -0.01461062
H        1.04095179       1.77899127       2.09743860      -0.02445217      -0.02284560       0.00433748      -0.02584023      -0.00740822       0.00814499
H        0.53175658       3.20620757       1.19815849       0.00740470       0.00901198      -0.00935217       0.00308715      -0.00349731      -0.00124576
17
Properties=species:S:1:pos:R:3:mp2_forces:R:3:forces:R:3 R1=NO2 R2=CH3 R3=CH3 R4=H lg=Br nu=F rxn-id=1066 mp2_energy=-82563.043379038 energy=-82563.02192485091 free_energy=-82563.04338232648 pbc="F F F"
C        0.30572944      -0.04639691       0.03661401       0.06690679      -0.01071740      -0.02662328      -0.04204454      -0.00452991      -0.00483735
C        0.66967942       1.42498770       0.00389481       0.01246685      -0.00518097      -0.00089665      -0.00767524      -0.01461900       0.00618264
H        1.75104220       1.38165001      -0.17659525       0.02145601       0.02151944       0.00009860       0.00410414      -0.06251542       0.04626843
Br      -1.68063122      -0.22634311      -0.31099804       0.07993317       0.01670213       0.01341957      -0.02406375      -0.00218689      -0.00054353
F        2.91278819      -0.06720722       0.15630662       0.01246386       0.05850842       0.07450423       0.06275727       0.05066353       0.03708241
H        0.15508456       1.90405121      -0.83081242      -0.03133949      -0.02061072       0.00543351       0.03546582       0.00200483      -0.01286650
N        0.90303276      -0.75140100      -1.17875449      -0.04395842      -0.07029099       0.03016371      -0.01815729       0.00240837       0.00100245
O        1.08633500      -0.06926739      -2.17876155      -0.04853689       0.01750072      -0.03192324      -0.00970291       0.00247232       0.00222846
O        1.04076214      -1.96605731      -1.12284302      -0.02358042       0.05674191       0.01210083       0.00924255       0.00607489       0.01221311
C        0.60804691      -0.79697493       1.30806496       0.01746641      -0.01121263      -0.00750239       0.00185010      -0.00056030      -0.01539730
H        1.66456736      -0.58576108       1.49904527       0.05342471      -0.06678542      -0.04674945       0.03134480      -0.01717935      -0.10471452
H       -0.06731802      -0.46822849       2.10014138       0.00529890       0.03480019      -0.00000957       0.06414090       0.04039539       0.02471076
H        0.47225020      -1.86354393       1.13946486      -0.07061207      -0.01287005       0.00343065      -0.04537146       0.00060059       0.01045642
C        0.38017360       2.13226387       1.32032693      -0.01051198       0.00083412      -0.00253583      -0.01665828      -0.00300040       0.00000435
H       -0.64547136       1.97241916       1.66789342      -0.02382996       0.00489486      -0.01789601      -0.02374641       0.01590779      -0.00707184
H        1.07365745       1.78279763       2.08704240      -0.02445217      -0.02284560       0.00433748      -0.02801229      -0.01093372       0.00790604
H        0.53074019       3.21024065       1.20572085       0.00740470       0.00901198      -0.00935217       0.00652659      -0.00500273      -0.00262404
17
Properties=species:S:1:pos:R:3:mp2_forces:R:3:forces:R:3 R1=NO2 R2=CH3 R3=CH3 R4=H lg=Br nu=F rxn-id=1066 mp2_energy=-82563.043379038 energy=-82562.97712996196 free_energy=-82563.04338232648 pbc="F F F"
C        0.34502498      -0.04286811       0.04080727       0.06690679      -0.01071740      -0.02662328      -0.08570504      -0.00653978      -0.00981005
C        0.67830744       1.43813154      -0.00288613       0.01246685      -0.00518097      -0.00089665      -0.02146323      -0.02206590       0.00948863
H        1.74977520       1.44241448      -0.21896796       0.02145601       0.02151944       0.00009860      -0.00097466      -0.11238683       0.06075412
Br      -1.65792938      -0.22221877      -0.30647392       0.07993317       0.01670213       0.01341957      -0.02676779      -0.01096375      -0.01154132
F        2.85493797      -0.11782222       0.11791627       0.01246386       0.05850842       0.07450423       0.09399208       0.04647311       0.02878569
H        0.12431696       1.90211887      -0.82067749      -0.03133949      -0.02061072       0.00543351       0.04011410       0.01591262      -0.01436210
N        0.92057468      -0.75291117      -1.17827194      -0.04395842      -0.07029099       0.03016371      -0.01706840       0.00587928       0.00782476
O        1.09404978      -0.07102641      -2.18061145      -0.04853689       0.01750072      -0.03192324       0.00530197       0.00789358       0.01293001
O        1.02889340      -1.97089108      -1.13195509      -0.02358042       0.05674191       0.01210083       0.02119682       0.01063434       0.02302993
C        0.60912409      -0.79599613       1.32289773       0.01746641      -0.01121263      -0.00750239      -0.00730747       0.00686471      -0.02069376
H        1.63942573      -0.57250075       1.59604974       0.05342471      -0.06678542      -0.04674945       0.03792926       0.00902580      -0.14959115
H       -0.12332392      -0.50383955       2.07798556       0.00529890       0.03480019      -0.00000957       0.06453885       0.04075169       0.04062498
H        0.51499958      -1.86293866       1.12924666      -0.07061207      -0.01287005       0.00343065      -0.04524555       0.00472690       0.00976411
C        0.39265382       2.13515411       1.31955209      -0.01051198       0.00083412      -0.00253583      -0.01910946      -0.00322014       0.00348533
H       -0.62966510       1.95788316       1.66730899      -0.02382996       0.00489486      -0.01789601      -0.02486924       0.02436775       0.00862432
H        1.09197882       1.78863425       2.08212666      -0.02445217      -0.02284560       0.00433748      -0.02450186      -0.01200623       0.00625471
H        0.52732475       3.21590529       1.21170376       0.00740470       0.00901198      -0.00935217       0.00993961      -0.00534714      -0.00556821
17
Properties=species:S:1:pos:R:3:mp2_forces:R:3:forces:R:3 R1=NO2 R2=CH3 R3=CH3 R4=H lg=Br nu=F rxn-id=1066 mp2_energy=-82563.043379038 energy=-82562.9214667216 free_energy=-82563.04338232648 pbc="F F F"
C        0.39584222      -0.04045996       0.04549790       0.06690679      -0.01071740      -0.02662328      -0.19430136      -0.00712002      -0.01915514
C        0.69134716       1.45024299      -0.00948578       0.01246685      -0.00518097      -0.00089665      -0.04246949      -0.02787731       0.00939748
H        1.75102927       1.51184450      -0.25710947       0.02145601       0.02151944       0.00009860      -0.00846037      -0.17513593       0.06573286
Br      -1.64189603      -0.21595475      -0.29896214       0.07993317       0.01670213       0.01341957       0.01821492      -0.01252023      -0.01302567
F        2.79587524      -0.14521907       0.10029257       0.01246386       0.05850842       0.07450423       0.16124620       0.02345647       0.00485018
H        0.09838797       1.89258101      -0.81129958      -0.03133949      -0.02061072       0.00543351       0.03819562       0.04710301      -0.01639700
N        0.93276504      -0.75636892      -1.18199531      -0.04395842      -0.07029099       0.03016371      -0.00601095       0.01334122       0.02232528
O        1.09066023      -0.07555594      -2.18843568      -0.04853689       0.01750072      -0.03192324       0.02463106       0.01537806       0.02760128
O        1.01731250      -1.97676208      -1.14328138      -0.02358042       0.05674191       0.01210083       0.03345684       0.01795673       0.03520472
C        0.61445931      -0.79987645       1.33528739       0.01746641      -0.01121263      -0.00750239      -0.02547013       0.01577996      -0.02519857
H        1.61886451      -0.58003800       1.68532765       0.05342471      -0.06678542      -0.04674945       0.03513926       0.04767478      -0.18876040
H       -0.16129723      -0.52617432       2.05279776       0.00529890       0.03480019      -0.00000957       0.05296515       0.02033050       0.06606761
H        0.53983666      -1.86488816       1.12299756      -0.07061207      -0.01287005       0.00343065      -0.03490485       0.00942749       0.00856790
C        0.40395881       2.13699704       1.31761058      -0.01051198       0.00083412      -0.00253583      -0.02013458      -0.00180210       0.00539926
H       -0.61651549       1.94320032       1.66058960      -0.02382996       0.00489486      -0.01789601      -0.02422566       0.03082079       0.02323978
H        1.10550467       1.79362175       2.07952735      -0.02445217      -0.02284560       0.00433748      -0.01750064      -0.01366334      -0.00009798
H        0.52433397       3.22003892       1.21639171       0.00740470       0.00901198      -0.00935217       0.00962898      -0.00315006      -0.00575160
17
Properties=species:S:1:pos:R:3:mp2_forces:R:3:forces:R:3 R1=NO2 R2=CH3 R3=CH3 R4=H lg=Br nu=F rxn-id=1066 mp2_energy=-82563.043379038 energy=-82562.83351965669 free_energy=-82563.04338232648 pbc="F F F"
C        0.48086954      -0.03909887       0.05254332       0.06690679      -0.01071740      -0.02662328      -0.38389252      -0.00780733      -0.03633358
C        0.71086557       1.46118802      -0.01397462       0.01246685      -0.00518097      -0.00089665      -0.05064697      -0.02464853       0.00236354
H        1.75653781       1.59003794      -0.28527331       0.02145601       0.02151944       0.00009860      -0.01134347      -0.17756866       0.04760970
Br      -1.65081723      -0.21073403      -0.29225339       0.07993317       0.01670213       0.01341957       0.14063848       0.00046328       0.00919917
F        2.72348360      -0.15477919       0.09561170       0.01246386       0.05850842       0.07450423       0.23978910      -0.00929376      -0.01825203
H        0.08215104       1.87285831      -0.80350317      -0.03133949      -0.02061072       0.00543351       0.02365778       0.07039828      -0.01630232
N        0.93722151      -0.76271617      -1.19189125      -0.04395842      -0.07029099       0.03016371       0.01902658       0.01872193       0.03636383
O        1.07974002      -0.08210288      -2.20141740      -0.04853689       0.01750072      -0.03192324       0.02923042       0.01630828       0.03190760
O        1.00321045      -1.98465975      -1.15797231      -0.02358042       0.05674191       0.01210083       0.03229625       0.02097664       0.03623302
C        0.62701443      -0.80669768       1.34655267       0.01746641      -0.01121263      -0.00750239      -0.03522391       0.01754738      -0.02208219
H        1.60701287      -0.60391605       1.76613860       0.05342471      -0.06678542      -0.04674945       0.02349331       0.05988879      -0.16989987
H       -0.18109825      -0.53111163       2.02520563       0.00529890       0.03480019      -0.00000957       0.02784858      -0.00746257       0.07547050
H        0.55062864      -1.86863715       1.12082352      -0.07061207      -0.01287005       0.00343065      -0.01811556       0.00815870       0.00684666
C        0.41160470       2.13753603       1.31566089      -0.01051198       0.00083412      -0.00253583      -0.01455074       0.00124522       0.00262554
H       -0.60928136       1.93035292       1.64767729      -0.02382996       0.00489486      -0.01789601      -0.01840883       0.02476821       0.02113546
H        1.10993145       1.79758913       2.08226324      -0.02445217      -0.02284560       0.00433748      -0.00917272      -0.01383684      -0.00683748
H        0.52139404       3.22211992       1.21955933       0.00740470       0.00901198      -0.00935217       0.00537421       0.00214097      -0.00004754
17
Properties=species:S:1:pos:R:3:mp2_forces:R:3:forces:R:3 R1=NO2 R2=CH3 R3=CH3 R4=H lg=Br nu=F rxn-id=1066 mp2_energy=-82563.043379038 energy=-82562.7751848456 free_energy=-82563.04338232648 pbc="F F F"
C        0.58864191      -0.03803131       0.06182901       0.06690679      -0.01071740      -0.02662328       0.00793478      -0.00350868      -0.00234736
C        0.72524517       1.46726963      -0.01522453       0.01246685      -0.00518097      -0.00089665       0.00150579      -0.00266124      -0.00223969
H        1.76043400       1.64072434      -0.29783302       0.02145601       0.02151944       0.00009860       0.00237225       0.00535899       0.00174712
Br      -1.69120162      -0.21109072      -0.29425009       0.07993317       0.01670213       0.01341957      -0.00644812      -0.00089987       0.00234881
F        2.65736162      -0.15170833       0.09994521       0.01246386       0.05850842       0.07450423       0.00246756       0.00200577      -0.00253727
H        0.07591014       1.85400834      -0.79925259      -0.03133949      -0.02061072       0.00543351       0.00052624       0.00206076      -0.00041114
N        0.93253288      -0.76854812      -1.20223927      -0.04395842      -0.07029099       0.03016371       0.00122944      -0.00221523      -0.00133258
O        1.07121169      -0.08615325      -2.21095122      -0.04853689       0.01750072      -0.03192324      -0.00146007       0.00190088      -0.00218154
O        0.99436311      -1.99041225      -1.16722156      -0.02358042       0.05674191       0.01210083       0.00054311      -0.00000986       0.00348405
C        0.63736951      -0.81174055       1.35289427       0.01746641      -0.01121263      -0.00750239       0.00211906      -0.00075213       0.00066645
H        1.60236445      -0.62242117       1.81215852       0.05342471      -0.06678542      -0.04674945       0.00684678      -0.00784864      -0.00375871
H       -0.18715821      -0.52695015       2.00541480       0.00529890       0.03480019      -0.00000957       0.00577887       0.00827281       0.00335376
H        0.55318914      -1.87097279       1.11977294      -0.07061207      -0.01287005       0.00343065      -0.00958041      -0.00031346       0.00289524
C        0.41486258       2.13707597       1.31497007      -0.01051198       0.00083412      -0.00253583      -0.00277310      -0.00051917      -0.00008528
H       -0.60626256       1.92405717       1.64040858      -0.02382996       0.00489486      -0.01789601      -0.00772265       0.00208300      -0.00570573
H        1.11096581       1.79990430       2.08511257      -0.02445217      -0.02284560       0.00433748      -0.00573348      -0.00549724       0.00372914
H        0.52063921       3.22221772       1.22021706       0.00740470       0.00901198      -0.00935217       0.00239395       0.00254331       0.00237476
17
Properties=species:S:1:pos:R:3:mp2_forces:R:3:forces:R:3 R1=NO2 R2=CH3 R3=CH3 R4=H lg=Br nu=F rxn-id=1066 mp2_energy=-82563.043379038 energy=-82562.90427575617 free_energy=-82563.04338232648 pbc="F F F"
C        0.72225514      -0.03678178       0.07387781       0.06690679      -0.01071740      -0.02662328       1.31671977       0.00893619       0.11625020
C        0.73472729       1.47002132      -0.01425951       0.01246685      -0.00518097      -0.00089665       0.09461242       0.02467993       0.00725077
H        1.76160986       1.67364750      -0.30503914       0.02145601       0.02151944       0.00009860       0.01447824       0.32749900      -0.06878331
Br      -1.74224410      -0.21424293      -0.30067602       0.07993317       0.01670213       0.01341957      -0.50652751      -0.03242138      -0.06090114
F        2.59205134      -0.14467354       0.10517811       0.01246386       0.05850842       0.07450423      -0.63846400       0.07149047       0.04886060
H        0.07265322       1.83647531      -0.79641379      -0.03133949      -0.02061072       0.00543351      -0.03172655      -0.16999304       0.02708723
N        0.92117476      -0.77298121      -1.21132679      -0.04395842      -0.07029099       0.03016371      -0.10973659      -0.04521023      -0.09038513
O        1.06412625      -0.08839357      -2.21753736      -0.04853689       0.01750072      -0.03192324      -0.07086207      -0.02020831      -0.06669056
O        0.98738775      -1.99407175      -1.17295876      -0.02358042       0.05674191       0.01210083      -0.06796954      -0.03590454      -0.05263042
C        0.64323338      -0.81458258       1.35577223       0.01746641      -0.01121263      -0.00750239       0.05973445      -0.02920370       0.02949503
H        1.59846816      -0.63569165       1.84093606       0.05342471      -0.06678542      -0.04674945      -0.03050898      -0.13728402       0.27796007
H       -0.18965095      -0.51980129       1.99010391       0.00529890       0.03480019      -0.00000957      -0.01935477       0.07914933      -0.14730143
H        0.55283630      -1.87157107       1.11823990      -0.07061207      -0.01287005       0.00343065      -0.01298974      -0.00685246      -0.01263326
C        0.41571759       2.13604911       1.31520485      -0.01051198       0.00083412      -0.00253583       0.00562406      -0.01061392       0.00255868
H       -0.60521325       1.92075244       1.63682396      -0.02382996       0.00489486      -0.01789601       0.00239802      -0.03016811      -0.04056490
H        1.11072106       1.80169071       2.08801541      -0.02445217      -0.02284560       0.00433748      -0.00778123       0.01198492       0.03237483
H        0.52061502       3.22138384       1.21980989       0.00740470       0.00901198      -0.00935217       0.00235402      -0.00588012      -0.00194726
17
Properties=species:S:1:pos:R:3:mp2_forces:R:3:forces:R:3 R1=NO2 R2=CH3 R3=CH3 R4=H lg=Br nu=F rxn-id=1066 mp2_energy=-82563.043379038 energy=-82563.25197521034 free_energy=-82563.04338232648 pbc="F F F"
C        0.83848838      -0.03612605       0.08411865       0.06690679      -0.01071740      -0.02662328       2.36124462       0.01020829       0.20596267
C        0.74306392       1.47012173      -0.01277952       0.01246685      -0.00518097      -0.00089665       0.17078926       0.00017878       0.02772199
H        1.76213251       1.70112055      -0.31168389       0.02145601       0.02151944       0.00009860       0.01416534       0.56125904      -0.13292791
Br      -1.78747973      -0.21747650      -0.30696645       0.07993317       0.01670213       0.01341957      -0.92297095      -0.06762996      -0.12566076
F        2.53903408      -0.13770707       0.11046026       0.01246386       0.05850842       0.07450423      -1.07149527       0.14413524       0.10393486
H        0.07037291       1.81970319      -0.79399164      -0.03133949      -0.02061072       0.00543351      -0.04669343      -0.33824198       0.04825812
N        0.91025582      -0.77546782      -1.21721000      -0.04395842      -0.07029099       0.03016371      -0.21891179      -0.05172959      -0.12036315
O        1.05716640      -0.09009718      -2.22232215      -0.04853689       0.01750072      -0.03192324      -0.14254881      -0.03285527      -0.09891001
O        0.98049500      -1.99629610      -1.17728555      -0.02358042       0.05674191       0.01210083      -0.13951426      -0.04518894      -0.08404295
C        0.64800500      -0.81567366       1.35614517       0.01746641      -0.01121263      -0.00750239       0.09904667      -0.02390668       0.00946707
H        1.59443121      -0.64695597       1.86504276       0.05342471      -0.06678542      -0.04674945      -0.07369037      -0.23482023       0.48488463
H       -0.19154593      -0.51271430       1.97605466       0.00529890       0.03480019      -0.00000957      -0.03441583       0.15269804      -0.28249081
H        0.55278530      -1.87142865       1.11632689      -0.07061207      -0.01287005       0.00343065      -0.01098307       0.00142283      -0.03667646
C        0.41659138       2.13481471       1.31559540      -0.01051198       0.00083412      -0.00253583       0.01493270      -0.02549656       0.00844173
H       -0.60436610       1.91784132       1.63400272      -0.02382996       0.00489486      -0.01789601       0.00914296      -0.05668343      -0.06213979
H        1.11043735       1.80317403       2.09089519      -0.02445217      -0.02284560       0.00433748      -0.01062910       0.02444177       0.06211937
H        0.52060131       3.22039664       1.21934822       0.00740470       0.00901198      -0.00935217       0.00253134      -0.01779134      -0.00757860
17
Properties=species:S:1:pos:R:3:mp2_forces:R:3:forces:R:3 R1=NO2 R2=CH3 R3=CH3 R4=H lg=Br nu=F rxn-id=1066 mp2_energy=-82563.043379038 energy=-82563.75097765175 free_energy=-82563.04338232648 pbc="F F F"
C        0.96420909      -0.03564120       0.09560169       0.06690679      -0.01071740      -0.02662328       1.92350905       0.00493685       0.17479983
C        0.75848553       1.46737104      -0.01039569       0.01246685      -0.00518097      -0.00089665       0.23650344      -0.04290087       0.03478384
H        1.76284947       1.74505216      -0.32290061       0.02145601       0.02151944       0.00009860       0.01353414       0.67481633      -0.17111232
Br      -1.85132211      -0.22176491      -0.31550081       0.07993317       0.01670213       0.01341957      -0.98268474      -0.07088956      -0.13174348
F        2.49495851      -0.12846606       0.11843128       0.01246386       0.05850842       0.07450423      -0.67087497       0.14619301       0.12046522
H        0.06753579       1.78871571      -0.78901810      -0.03133949      -0.02061072       0.00543351      -0.04493950      -0.47200599       0.07453472
N        0.90119362      -0.77610649      -1.22044804      -0.04395842      -0.07029099       0.03016371      -0.13525356      -0.01394672      -0.04909084
O        1.04353839      -0.09177216      -2.22763507      -0.04853689       0.01750072      -0.03192324      -0.20875177      -0.02362599      -0.08384620
O        0.96691330      -1.99807227      -1.18230208      -0.02358042       0.05674191       0.01210083      -0.20741566      -0.02526086      -0.07397886
C        0.65852815      -0.81557818       1.35404640       0.01746641      -0.01121263      -0.00750239       0.16004209      -0.00131153      -0.02885916
H        1.58739258      -0.66548972       1.90355730       0.05342471      -0.06678542      -0.04674945      -0.10031085      -0.28780243       0.58318077
H       -0.19366440      -0.49976941       1.94966106       0.00529890       0.03480019      -0.00000957      -0.03343274       0.20898671      -0.40123306
H        0.55297541      -1.87015550       1.11252430      -0.07061207      -0.01287005       0.00343065      -0.00208545       0.01575917      -0.05691528
C        0.41922582       2.13245681       1.31614177      -0.01051198       0.00083412      -0.00253583       0.03909681      -0.03563246       0.01058040
H       -0.60248822       1.91229171       1.62874057      -0.02382996       0.00489486      -0.01789601       0.02219772      -0.08388401      -0.08252099
H        1.10973111       1.80570422       2.09669704      -0.02445217      -0.02284560       0.00433748      -0.01123581       0.03342773       0.09255524
H        0.52040680       3.21845310       1.21854973       0.00740470       0.00901198      -0.00935217       0.00210181      -0.02685937      -0.01159985
17
Properties=species:S:1:pos:R:3:mp2_forces:R:3:forces:R:3 R1=NO2 R2=CH3 R3=CH3 R4=H lg=Br nu=F rxn-id=1066 mp2_energy=-82563.043379038 energy=-82564.18346185904 free_energy=-82563.04338232648 pbc="F F F"
C        1.07867779      -0.03285624       0.10980870       0.06690679      -0.01071740      -0.02662328       0.62214382       0.01552362       0.07456158
C        0.79124018       1.46146665      -0.00463175       0.01246685      -0.00518097      -0.00089665       0.17751595      -0.03191431       0.02365518
H        1.76187960       1.82319345      -0.34492838       0.02145601       0.02151944       0.00009860      -0.01026757       0.42931394      -0.13921532
Br      -1.96157662      -0.22789035      -0.32755323       0.07993317       0.01670213       0.01341957      -0.61907122      -0.02099284      -0.05233792
F        2.51427433      -0.11848788       0.12992647       0.01246386       0.05850842       0.07450423       0.09989295       0.06021140       0.07526059
H        0.06163347       1.71364835      -0.77271410      -0.03133949      -0.02061072       0.00543351      -0.04487435      -0.40417877       0.09389375
N        0.90393311      -0.77137978      -1.21566677      -0.04395842      -0.07029099       0.03016371       0.02622312       0.02062773       0.02652281