17
Properties=species:S:1:pos:R:3:mp2_forces:R:3:forces:R:3 R1=CH3 R2=CH3 R3=H R4=NO2 lg=F nu=F rxn-id=2152 mp2_energy=-15264.067932745553 energy=-15264.067936772812 free_energy=-15264.067936772812 pbc="F F F"
C        0.68179894      -0.06992156      -0.06349233      -0.00875766       0.01051612       0.00241220      -0.00876261       0.01053105       0.00241002
C        1.38329205       1.28214444      -0.07969765       0.00302955       0.00370966       0.05080582       0.00302509       0.00368534       0.05081413
H        2.46681528       1.03039316      -0.22609716      -0.00771680      -0.01931798      -0.01214218      -0.00770962      -0.01931558      -0.01214108
F       -0.72159832       0.14208367      -0.08697735      -0.01188444       0.04372628      -0.03997199      -0.01188444       0.04372753      -0.03997265
F        3.66080101      -0.14266156       0.02605421       0.01403811      -0.01902637       0.00770777       0.01403296      -0.01902732       0.00770850
H        1.23139513       1.79853183       0.86518710      -0.04696485       0.01066547       0.06896953      -0.04696433       0.01066208       0.06896996
C        1.07671068      -0.94697252      -1.23091089      -0.00678018       0.01856426      -0.00110553      -0.00678387       0.01856179      -0.00110096
H        0.48072117      -1.86486373      -1.21618197       0.04161598      -0.01326382       0.02377692       0.04161688      -0.01326701       0.02377952
H        0.92883113      -0.42926371      -2.17741036      -0.06678924      -0.02893417      -0.01830976      -0.06679191      -0.02893157      -0.01831489
H        2.14233634      -1.14668985      -1.08683854       0.00964779       0.05918041      -0.05401160       0.00965500       0.05918285      -0.05400858
C        1.05619794      -0.74050507       1.24340966      -0.00177309       0.01149076      -0.01680331      -0.00178042       0.01148723      -0.01680148
H        2.15344826      -0.75370956       1.24461222      -0.02500134      -0.01516399       0.04306389      -0.02498935      -0.01516149       0.04305885
H        0.65660415      -0.17651274       2.09282103       0.03871356       0.00366664      -0.02783107       0.03871305       0.00366863      -0.02783051
H        0.64852126      -1.75655960       1.27666920       0.02783434       0.03136464      -0.01727446       0.02783407       0.03136133      -0.01727404
N        0.85769812       2.21716048      -1.09962589       0.04112456      -0.04065584      -0.03702656       0.04110041      -0.04056923      -0.03696183
O        0.35453915       3.27410319      -0.70514665       0.00071427      -0.01256012       0.01103894       0.00073541      -0.01260291       0.01103110
O        0.96443836       1.92319963      -2.29184348      -0.00105056      -0.04396195       0.01670139      -0.00104631      -0.04399272       0.01663394
17
Properties=species:S:1:pos:R:3:mp2_forces:R:3:forces:R:3 R1=CH3 R2=CH3 R3=H R4=NO2 lg=F nu=F rxn-id=2152 mp2_energy=-15264.067932745553 energy=-15264.034769243093 free_energy=-15264.067936772812 pbc="F F F"
C        0.69458423      -0.06235840      -0.06123012      -0.00875766       0.01051612       0.00241220      -0.00798680      -0.00028636      -0.00161490
C        1.39144097       1.29042512      -0.06929589       0.00302955       0.00370966       0.05080582       0.00039698      -0.00345079       0.00221465
H        2.47232471       1.04984192      -0.22443086      -0.00771680      -0.01931798      -0.01214218       0.00029208      -0.01076625       0.00699114
F       -0.70780015       0.16192279      -0.09894545      -0.01188444       0.04372628      -0.03997199      -0.00647967       0.00187887       0.00066537
F        3.65865652      -0.18144948       0.02386225       0.01403811      -0.01902637       0.00770777       0.00457439      -0.01233635      -0.00804219
H        1.22248550       1.80804319       0.87397146      -0.04696485       0.01066547       0.06896953      -0.00052549      -0.00560589       0.00325918
C        1.09540388      -0.93086863      -1.23280377      -0.00678018       0.01856426      -0.00110553      -0.00941815       0.00030884      -0.00133691
H        0.48790110      -1.84064282      -1.23714764       0.04161598      -0.01326382       0.02377692       0.03566968      -0.03336534       0.03865589
H        0.96761729      -0.40510098      -2.17784395      -0.06678924      -0.02893417      -0.01830976      -0.07520473      -0.02094712      -0.00764319
H        2.15795893      -1.14029326      -1.08006797       0.00964779       0.05918041      -0.05401160       0.00852278       0.05330073      -0.02956933
C        1.05586822      -0.74350507       1.24233801      -0.00177309       0.01149076      -0.01680331      -0.00464732       0.00293346      -0.00064461
H        2.14540695      -0.85946959       1.21134690      -0.02500134      -0.01516399       0.04306389       0.00136464       0.03873753       0.01255851
H        0.76134438      -0.12551362       2.09590435       0.03871356       0.00366664      -0.02783107      -0.04488807      -0.01066393      -0.00299454
H        0.54570515      -1.70899179       1.31502394       0.02783434       0.03136464      -0.01727446       0.03041404      -0.01820897      -0.01394167
N        0.83670216       2.19964238      -1.09818527       0.04112456      -0.04065584      -0.03702656       0.02006554      -0.00075483      -0.00498479
O        0.25849750       3.21958319      -0.71086020       0.00071427      -0.01256012       0.01103894       0.01543033       0.00864553       0.00087178
O        0.97845332       1.90869155      -2.28710466      -0.00105056      -0.04396195       0.01670139       0.03241978       0.01058087       0.00555562
17
Properties=species:S:1:pos:R:3:mp2_forces:R:3:forces:R:3 R1=CH3 R2=CH3 R3=H R4=NO2 lg=F nu=F rxn-id=2152 mp2_energy=-15264.067932745553 energy=-15263.998966505096 free_energy=-15264.067936772812 pbc="F F F"
C        0.70710678      -0.06255910      -0.05859015      -0.00875766       0.01051612       0.00241220      -0.01162265       0.00027336      -0.00304393
C        1.39487898       1.29470675      -0.07443347       0.00302955       0.00370966       0.05080582       0.00322333      -0.00549407       0.00161285
H        2.47423408       1.06259267      -0.24276279      -0.00771680      -0.01931798      -0.01214218       0.00242958      -0.01535254       0.00642266
F       -0.69615665       0.15973959      -0.10060688      -0.01188444       0.04372628      -0.03997199      -0.00824095       0.00713143      -0.00164226
F        3.65084452      -0.18293653       0.02449593       0.01403811      -0.01902637       0.00770777       0.01050262      -0.02596595      -0.00818872
H        1.23184131       1.81340178       0.86918863      -0.04696485       0.01066547       0.06896953       0.00434629      -0.00954806       0.00431942
C        1.11004174      -0.93010621      -1.23170500      -0.00678018       0.01856426      -0.00110553      -0.01414231      -0.00076028      -0.00071948
H        0.44486477      -1.79621018      -1.29158907       0.04161598      -0.01326382       0.02377692       0.04105596      -0.05240391       0.05791262
H        1.06582583      -0.37363981      -2.16658049      -0.06678924      -0.02893417      -0.01830976      -0.10594961      -0.02514940      -0.01590355
H        2.14996696      -1.20704638      -1.04464816       0.00964779       0.05918041      -0.05401160       0.01780250       0.07477412      -0.03486480
C        1.06035144      -0.74387837       1.24723320      -0.00177309       0.01149076      -0.01680331      -0.00715614       0.00562429      -0.00172600
H        2.14083164      -0.91554379       1.20159759      -0.02500134      -0.01516399       0.04306389       0.00722708       0.06864303       0.01805441
H        0.82215188      -0.09991398       2.09904378       0.03871356       0.00366664      -0.02783107      -0.07687663      -0.01428104      -0.00352639
H        0.49575488      -1.67639537       1.34440251       0.02783434       0.03136464      -0.01727446       0.04986405      -0.03396649      -0.02580290
N        0.81105497       2.19318339      -1.09798314       0.04112456      -0.04065584      -0.03702656       0.02667449       0.00022363      -0.00500529
O        0.20024558       3.19096153      -0.70352458       0.00071427      -0.01256012       0.01103894       0.02131811       0.01038717       0.00474848
O        0.95871196       1.91360051      -2.28900675      -0.00105056      -0.04396195       0.01670139       0.03954426       0.01586472       0.00735286
17
Properties=species:S:1:pos:R:3:mp2_forces:R:3:forces:R:3 R1=CH3 R2=CH3 R3=H R4=NO2 lg=F nu=F rxn-id=2152 mp2_energy=-15264.067932745553 energy=-15263.953183658014 free_energy=-15264.067936772812 pbc="F F F"
C        0.71954489      -0.06378694      -0.05615999      -0.00875766       0.01051612       0.00241220      -0.01459608       0.00090429      -0.00366019
C        1.39529852       1.29928715      -0.07769017       0.00302955       0.00370966       0.05080582       0.00594268      -0.00736720       0.00107917
H        2.47458061       1.07603464      -0.25481596      -0.00771680      -0.01931798      -0.01214218       0.00469367      -0.01990871       0.00598823
F       -0.68535255       0.15332470      -0.10099472      -0.01188444       0.04372628      -0.03997199      -0.00962190       0.01199792      -0.00319720
F        3.64041068      -0.17549145       0.02245828       0.01403811      -0.01902637       0.00770777       0.01743123      -0.03441167      -0.00893927
H        1.23356697       1.81871891       0.86566403      -0.04696485       0.01066547       0.06896953       0.00872314      -0.01240705       0.00483396
C        1.12374958      -0.92978813      -1.23216528      -0.00678018       0.01856426      -0.00110553      -0.01831629      -0.00172386       0.00049230
H        0.40857163      -1.74912097      -1.34553007       0.04161598      -0.01326382       0.02377692       0.03894856      -0.06759400       0.07111275
H        1.15814457      -0.34912086      -2.15238646      -0.06678924      -0.02893417      -0.01830976      -0.12602083      -0.02402453      -0.02332698
H        2.13620600      -1.27411122      -1.01835209       0.00964779       0.05918041      -0.05401160       0.02709950       0.08912260      -0.03523844
C        1.06583152      -0.74489870       1.25237624      -0.00177309       0.01149076      -0.01680331      -0.00944550       0.00722429      -0.00267141
H        2.13408483      -0.97135128       1.19555149      -0.02500134      -0.01516399       0.04306389       0.01500294       0.09321783       0.02061562
H        0.88249315      -0.07879038       2.10054834       0.03871356       0.00366664      -0.02783107      -0.10305754      -0.01503607      -0.00206998
H        0.45142643      -1.64237899       1.37383523       0.02783434       0.03136464      -0.01727446       0.06237508      -0.04973796      -0.03607154
N        0.78885733       2.18743024      -1.09803974       0.04112456      -0.04065584      -0.03702656       0.03111575       0.00065549      -0.00457948
O        0.15668010       3.17005219      -0.69944085       0.00071427      -0.01256012       0.01103894       0.02605052       0.01056110       0.00757202
O        0.93845639       1.91394758      -2.29032713      -0.00105056      -0.04396195       0.01670139       0.04367508       0.01852753       0.00806045
17
Properties=species:S:1:pos:R:3:mp2_forces:R:3:forces:R:3 R1=CH3 R2=CH3 R3=H R4=NO2 lg=F nu=F rxn-id=2152 mp2_energy=-15264.067932745553 energy=-15263.903698810915 free_energy=-15264.067936772812 pbc="F F F"
C        0.73214751      -0.06520133      -0.05423323      -0.00875766       0.01051612       0.00241220      -0.01786463       0.00165563      -0.00359170
C        1.39373084       1.30472431      -0.07942210       0.00302955       0.00370966       0.05080582       0.00795051      -0.00935092       0.00062330
H        2.47368643       1.09205962      -0.26191096      -0.00771680      -0.01931798      -0.01214218       0.00662039      -0.02718351       0.00585112
F       -0.67481220       0.14523323      -0.10060530      -0.01188444       0.04372628      -0.03997199      -0.01175438       0.01528964      -0.00396735
F        3.62718963      -0.16760278       0.02083302       0.01403811      -0.01902637       0.00770777       0.02533820      -0.03434687      -0.01176295
H        1.22916548       1.82422400       0.86333281      -0.04696485       0.01066547       0.06896953       0.01314663      -0.01428049       0.00483297
C        1.13676542      -0.92958588      -1.23371807      -0.00678018       0.01856426      -0.00110553      -0.02190785      -0.00242834       0.00214908
H        0.38022719      -1.70223175      -1.39461590       0.04161598      -0.01326382       0.02377692       0.03193746      -0.07728778       0.07670868
H        1.24108267      -0.33209345      -2.13745041      -0.06678924      -0.02893417      -0.01830976      -0.13447972      -0.01937602      -0.02789515
H        2.11901764      -1.33738880      -0.99987584       0.00964779       0.05918041      -0.05401160       0.03385885       0.09503136      -0.03133687
C        1.07245682      -0.74626207       1.25701484      -0.00177309       0.01149076      -0.01680331      -0.01179215       0.00817777      -0.00343100
H        2.12608487      -1.02525765       1.19153512      -0.02500134      -0.01516399       0.04306389       0.02302148       0.11140395       0.02034544
H        0.94098584      -0.06245705       2.10050721       0.03871356       0.00366664      -0.02783107      -0.12176954      -0.01305282       0.00051856
H        0.41352609      -1.60802887       1.40091624       0.02783434       0.03136464      -0.01727446       0.06831849      -0.06374202      -0.04298220
N        0.76941541       2.18293138      -1.09841816       0.04112456      -0.04065584      -0.03702656       0.03402203       0.00027139      -0.00420644
O        0.12307838       3.15556570      -0.69814440       0.00071427      -0.01256012       0.01103894       0.02939474       0.00969274       0.00991713
O        0.91880264       1.91132790      -2.29121372      -0.00105056      -0.04396195       0.01670139       0.04595949       0.01952630       0.00822738
17
Properties=species:S:1:pos:R:3:mp2_forces:R:3:forces:R:3 R1=CH3 R2=CH3 R3=H R4=NO2 lg=F nu=F rxn-id=2152 mp2_energy=-15264.067932745553 energy=-15263.851748973399 free_energy=-15264.067936772812 pbc="F F F"
C        0.74713095      -0.06628718      -0.05285380      -0.00875766       0.01051612       0.00241220      -0.02457193       0.00252812      -0.00300424
C        1.39161310       1.31196941      -0.08022267       0.00302955       0.00370966       0.05080582       0.00843387      -0.01260485       0.00033760
H        2.47243039       1.11454182      -0.26635007      -0.00771680      -0.01931798      -0.01214218       0.00741505      -0.04294323       0.00579619
F       -0.66224438       0.13726994      -0.09989252      -0.01188444       0.04372628      -0.03997199      -0.01771837       0.01630254      -0.00448495
F        3.60999965      -0.16424632       0.02169118       0.01403811      -0.01902637       0.00770777       0.03580172      -0.02549380      -0.01665062
H        1.22028184       1.83042877       0.86185914      -0.04696485       0.01066547       0.06896953       0.01918830      -0.01520727       0.00428929
C        1.15038681      -0.92947933      -1.23615998      -0.00678018       0.01856426      -0.00110553      -0.02534271      -0.00233904       0.00434562
H        0.35749952      -1.65411715      -1.43910423       0.04161598      -0.01326382       0.02377692       0.02329678      -0.08272586       0.07414169
H        1.31837738      -0.32142310      -2.12272990      -0.06678924      -0.02893417      -0.01830976      -0.13264054      -0.01165777      -0.02823028
H        2.09930089      -1.39903785      -0.98746573       0.00964779       0.05918041      -0.05401160       0.03768258       0.09563165      -0.02189315
C        1.08062578      -0.74803956       1.26115853      -0.00177309       0.01149076      -0.01680331      -0.01479639       0.00937147      -0.00429771
H        2.11664993      -1.08030176       1.18967948      -0.02500134      -0.01516399       0.04306389       0.03091277       0.12549383       0.01489533
H        0.99960472      -0.05012369       2.09918452       0.03871356       0.00366664      -0.02783107      -0.13274339      -0.00810378       0.00334673
H        0.37911655      -1.57162233       1.42523750       0.02783434       0.03136464      -0.01727446       0.06953333      -0.07613162      -0.04492075
N        0.75047540       2.17941857      -1.09903837       0.04112456      -0.04065584      -0.03702656       0.03627675      -0.00094676      -0.00414817
O        0.09324789       3.14464777      -0.69874252       0.00071427      -0.01256012       0.01103894       0.03173361       0.00826506       0.01241956
O        0.89805421       1.90635847      -2.29171941      -0.00105056      -0.04396195       0.01670139       0.04753856       0.02056130       0.00805787
17
Properties=species:S:1:pos:R:3:mp2_forces:R:3:forces:R:3 R1=CH3 R2=CH3 R3=H R4=NO2 lg=F nu=F rxn-id=2152 mp2_energy=-15264.067932745553 energy=-15263.788846841291 free_energy=-15264.067936772812 pbc="F F F"
C        0.77149099      -0.06664725      -0.05217711      -0.00875766       0.01051612       0.00241220      -0.04355771       0.00379592      -0.00176853
C        1.39094895       1.32388359      -0.08042114       0.00302955       0.00370966       0.05080582       0.00472471      -0.01969194      -0.00010343
H        2.47256345       1.15543048      -0.27001595      -0.00771680      -0.01931798      -0.01214218       0.00483017      -0.08374201       0.00430036
F       -0.64119476       0.13094726      -0.09927429      -0.01188444       0.04372628      -0.03997199      -0.03569629       0.01318135      -0.00574770
F        3.58374980      -0.16869196       0.02786788       0.01403811      -0.01902637       0.00770777       0.05592903      -0.00578819      -0.02285412
H        1.20587425       1.83863275       0.86113166      -0.04696485       0.01066547       0.06896953       0.03120322      -0.01453153       0.00293780
C        1.16797463      -0.93009108      -1.24020579      -0.00678018       0.01856426      -0.00110553      -0.02996043       0.00032212       0.00803754
H        0.33593752      -1.59672892      -1.48177701       0.04161598      -0.01326382       0.02377692       0.01790014      -0.08530092       0.05853030
H        1.40047948      -0.31770010      -2.10861656      -0.06678924      -0.02893417      -0.01830976      -0.11811353       0.00053351      -0.01958623
H        2.07464185      -1.46982937      -0.98180326       0.00964779       0.05918041      -0.05401160       0.03736327       0.09761749      -0.00042628
C        1.09220775      -0.75116753       1.26532995      -0.00177309       0.01149076      -0.01680331      -0.02016730       0.01226029      -0.00586949
H        2.10322480      -1.14818952       1.19307494      -0.02500134      -0.01516399       0.04306389       0.03859504       0.14039622      -0.00410640
H        1.06626158      -0.04144517       2.09663994       0.03871356       0.00366664      -0.02783107      -0.13290120       0.00051791       0.00460255
H        0.34108578      -1.52581451       1.44685036       0.02783434       0.03136464      -0.01727446       0.06813121      -0.08785077      -0.03682359
N        0.72758863       2.17613381      -1.09973992       0.04112456      -0.04065584      -0.03702656       0.03833105      -0.00216311      -0.00377028
O        0.05930141       3.13413763      -0.70083321       0.00071427      -0.01256012       0.01103894       0.03385432       0.00637472       0.01580270
O        0.87041455       1.89709640      -2.29149934      -0.00105056      -0.04396195       0.01670139       0.04953430       0.02406895       0.00684479
17
Properties=species:S:1:pos:R:3:mp2_forces:R:3:forces:R:3 R1=CH3 R2=CH3 R3=H R4=NO2 lg=F nu=F rxn-id=2152 mp2_energy=-15264.067932745553 energy=-15263.7092854062 free_energy=-15264.067936772812 pbc="F F F"
C        0.81551249      -0.06520004      -0.05314930      -0.00875766       0.01051612       0.00241220      -0.09388867       0.00685536       0.00009662
C        1.39810795       1.34350183      -0.07977709       0.00302955       0.00370966       0.05080582      -0.01113323      -0.03350014      -0.00269412
H        2.47964458       1.23362264      -0.27332829      -0.00771680      -0.01931798      -0.01214218      -0.00575145      -0.18279162      -0.00253092
F       -0.60205758       0.13378652      -0.09965070      -0.01188444       0.04372628      -0.03997199      -0.07993834       0.00079536      -0.00996473
F        3.54348960      -0.18230970       0.04304577       0.01403811      -0.01902637       0.00770777       0.10756468       0.02033767      -0.02327749
H        1.18717897       1.84803188       0.86213869      -0.04696485       0.01066547       0.06896953       0.05507916      -0.00804331      -0.00059863
C        1.18993185      -0.93372047      -1.24649852      -0.00678018       0.01856426      -0.00110553      -0.03860877       0.00967482       0.01544721
H        0.31512559      -1.53705726      -1.50423993       0.04161598      -0.01326382       0.02377692       0.02462779      -0.09209290       0.01821863
H        1.46964088      -0.32804699      -2.10526046      -0.06678924      -0.02893417      -0.01830976      -0.08750846       0.02092834       0.00481863
H        2.05003335      -1.54548915      -0.99259534       0.00964779       0.05918041      -0.05401160       0.03492921       0.11835309       0.04695821
C        1.10718970      -0.75776614       1.26870241      -0.00177309       0.01149076      -0.01680331      -0.03189740       0.01933947      -0.00968692
H        2.08427598      -1.23004735       1.21179757      -0.02500134      -0.01516399       0.04306389       0.04538921       0.16345140      -0.05596343
H        1.12802223      -0.04218561       2.09480166       0.03871356       0.00366664      -0.02783107      -0.11186096       0.01260956       0.00112318
H        0.29936799      -1.47292330       1.45138797       0.02783434       0.03136464      -0.01727446       0.06538575      -0.09951459      -0.00395269
N        0.70151780       2.17258386      -1.09970151       0.04112456      -0.04065584      -0.03702656       0.03912412       0.00165624      -0.00163969
O        0.02139137       3.12315883      -0.70404572       0.00071427      -0.01256012       0.01103894       0.03583277       0.00609729       0.02104878
O        0.83417791       1.88001696      -2.28909606      -0.00105056      -0.04396195       0.01670139       0.05265460       0.03584396       0.00259737
17
Properties=species:S:1:pos:R:3:mp2_forces:R:3:forces:R:3 R1=CH3 R2=CH3 R3=H R4=NO2 lg=F nu=F rxn-id=2152 mp2_energy=-15264.067932745553 energy=-15263.575096674174 free_energy=-15264.067936772812 pbc="F F F"
C        0.88554522      -0.06335314      -0.05547614      -0.00875766       0.01051612       0.00241220      -0.19676692       0.01639345       0.00026103
C        1.41864559       1.36963791      -0.07829359       0.00302955       0.00370966       0.05080582      -0.04468903      -0.04846606      -0.00863310
H        2.49556102       1.36075816      -0.27757700      -0.00771680      -0.01931798      -0.01214218      -0.01485927      -0.35361287      -0.01011055
F       -0.54083604       0.15052130      -0.09968387      -0.01188444       0.04372628      -0.03997199      -0.14784820      -0.02983105      -0.02010333
F        3.47969954      -0.19033854       0.05981724       0.01403811      -0.01902637       0.00770777       0.23693105       0.03000522      -0.00452959
H        1.16954806       1.85296925       0.86590237      -0.04696485       0.01066547       0.06896953       0.08315905       0.01815314      -0.00775849
C        1.21401982      -0.94307379      -1.25480928      -0.00678018       0.01856426      -0.00110553      -0.05555115       0.02748827       0.02739271
H        0.29481919      -1.48721293      -1.49084947       0.04161598      -0.01326382       0.02377692       0.04010188      -0.11430363      -0.05557059
H        1.50647117      -0.35332054      -2.12023604      -0.06678924      -0.02893417      -0.01830976      -0.04821269       0.04586294       0.04143597
H        2.03189657      -1.61935223      -1.02663297       0.00964779       0.05918041      -0.05401160       0.03691008       0.16821638       0.12689132
C        1.12346705      -0.77018918       1.27171908      -0.00177309       0.01149076      -0.01680331      -0.05249963       0.03308720      -0.01840510
H        2.05675014      -1.32374637       1.25589903      -0.02500134      -0.01516399       0.04306389       0.05583642       0.20122615      -0.15305896
H        1.16947624      -0.05513180       2.09696918       0.03871356       0.00366664      -0.02783107      -0.07026963       0.02414446      -0.00716513
H        0.25654011      -1.41971868       1.42824658       0.02783434       0.03136464      -0.01727446       0.05837933      -0.11198149       0.06428905
N        0.67762842       2.16679652      -1.09826780       0.04112456      -0.04065584      -0.03702656       0.03811513       0.01982639      -0.00002274
O       -0.01554158       3.10962215      -0.70853193       0.00071427      -0.01256012       0.01103894       0.03108932       0.01341554       0.02940428
O        0.79886014       1.85508841      -2.28366424      -0.00105056      -0.04396195       0.01670139       0.05017425       0.06037596      -0.00431679
17
Properties=species:S:1:pos:R:3:mp2_forces:R:3:forces:R:3 R1=CH3 R2=CH3 R3=H R4=NO2 lg=F nu=F rxn-id=2152 mp2_energy=-15264.067932745553 energy=-15263.377281337336 free_energy=-15264.067936772812 pbc="F F F"
C        0.95895912      -0.06823155      -0.05593271      -0.00875766       0.01051612       0.00241220      -0.43130342       0.04932083      -0.00952995
C        1.43678094       1.38837823      -0.07797560       0.00302955       0.00370966       0.05080582      -0.06285270      -0.04815839      -0.00942772
H        2.50066073       1.48868151      -0.28353718      -0.00771680      -0.01931798      -0.01214218       0.01611188      -0.48773501      -0.00247045
F       -0.48637452       0.16274136      -0.09445695      -0.01188444       0.04372628      -0.03997199      -0.12679593      -0.08482618      -0.03676069
F        3.39426926      -0.19766881       0.06532281       0.01403811      -0.01902637       0.00770777       0.45856317       0.03026696       0.02680077
H        1.15084391       1.84641489       0.86832667      -0.04696485       0.01066547       0.06896953       0.10220149       0.06273262      -0.00643365
C        1.23621536      -0.95313247      -1.26424482      -0.00678018       0.01856426      -0.00110553      -0.08183959       0.04511489       0.03775100
H        0.28122144      -1.44066332      -1.47997603       0.04161598      -0.01326382       0.02377692       0.03494411      -0.14717989      -0.13957272
H        1.53769328      -0.37078978      -2.13164871      -0.06678924      -0.02893417      -0.01830976      -0.01877805       0.05150462       0.06285713
H        2.01362184      -1.68552915      -1.06730741       0.00964779       0.05918041      -0.05401160       0.03427519       0.21173414       0.20631631
C        1.14049673      -0.78219270       1.27883754      -0.00177309       0.01149076      -0.01680331      -0.07487967       0.04676136      -0.03107865
H        2.02861653      -1.40429445       1.30892517      -0.02500134      -0.01516399       0.04306389       0.06869885       0.22692452      -0.25067358
H        1.20376971      -0.06364926       2.09980199       0.03871356       0.00366664      -0.02783107      -0.03510726       0.02609935      -0.01153254
H        0.22810669      -1.37202701       1.41045928       0.02783434       0.03136464      -0.01727446       0.03707916      -0.12519232       0.13667954
N        0.65957817       2.15822978      -1.09810568       0.04112456      -0.04065584      -0.03702656       0.04815098       0.05001609      -0.00549692
O       -0.03933078       3.09791156      -0.71324890       0.00071427      -0.01256012       0.01103894       0.00068659       0.02390920       0.03399678
O        0.77742223       1.83577766      -2.28070832      -0.00105056      -0.04396195       0.01670139       0.03084521       0.06870723      -0.00142466
17
Properties=species:S:1:pos:R:3:mp2_forces:R:3:forces:R:3 R1=CH3 R2=CH3 R3=H R4=NO2 lg=F nu=F rxn-id=2152 mp2_energy=-15264.067932745553 energy=-15263.032627427036 free_energy=-15264.067936772812 pbc="F F F"
C        1.07343677      -0.07969347      -0.05396162      -0.00875766       0.01051612       0.00241220      -1.34403089       0.16357399      -0.04860986
C        1.45540318       1.40261985      -0.07805623       0.00302955       0.00370966       0.05080582      -0.00635009      -0.03616658      -0.00147307
H        2.49774482       1.61428533      -0.28804264      -0.00771680      -0.01931798      -0.01214218       0.07893146      -0.47122428       0.00569932
F       -0.45307523       0.18574354      -0.08618999      -0.01188444       0.04372628      -0.03997199       0.38448809      -0.23365036      -0.03379961
F        3.27673419      -0.20845269       0.06106040       0.01403811      -0.01902637       0.00770777       0.86449621       0.02255789       0.06468274
H        1.13279858       1.83090090       0.86935869      -0.04696485       0.01066547       0.06896953       0.11150318       0.09257906       0.00042345
C        1.25804831      -0.96519322      -1.27433715      -0.00678018       0.01856426      -0.00110553      -0.10808038       0.05559028       0.04858679