17
Properties=species:S:1:pos:R:3:mp2_forces:R:3:forces:R:3 R1=CH3 R2=H R3=NO2 R4=CH3 lg=F nu=F rxn-id=1791 mp2_energy=-15263.87604426383 energy=-15263.876047092428 free_energy=-15263.876047092428 pbc="F F F"
C        0.51949211      -0.08580674      -0.01621288      -0.01165971      -0.00260424       0.00339459      -0.01171565      -0.00259815       0.00339458
C        0.88147722       1.38301147      -0.09450425      -0.00242521      -0.00766510       0.00221021      -0.00240584      -0.00766169       0.00225739
H        2.01797505       1.31777015      -0.10068693      -0.00095178       0.00565582      -0.00904392      -0.00096188       0.00565748      -0.00905098
F       -0.87012481      -0.22870301       0.22841131      -0.01891687       0.00032959      -0.03153596      -0.01890097       0.00032995      -0.03154123
F        3.33131324       0.47997922      -0.43733626       0.00542706       0.05186444      -0.06708304       0.00543077       0.05186372      -0.06708368
H        1.03646176      -0.50117817       0.84767504      -0.03678003      -0.00367419       0.02120702      -0.03676514      -0.00368133       0.02121529
C        0.90302098      -0.83206344      -1.26835771       0.01298691      -0.00833988       0.01697986       0.01299295      -0.00835195       0.01697636
H        0.26618428      -0.53913194      -2.10772366       0.03373623       0.00772622       0.01287562       0.03373147       0.00773094       0.01287104
H        1.95501053      -0.57292479      -1.43358395       0.01445702      -0.02347607       0.02370712       0.01446642      -0.02347114       0.02370720
H        0.79294185      -1.90853063      -1.11109144      -0.01218444      -0.00551875      -0.00045615      -0.01218426      -0.00552172      -0.00045538
N        0.42232546       2.02593764       1.16755688      -0.01900855       0.03072098      -0.01872262      -0.01910035       0.03082667      -0.01879070
O       -0.29931461       3.02787513       1.10943020       0.05070842      -0.00594705       0.01142532       0.05078958      -0.00603789       0.01145785
O        0.80176440       1.52878693       2.22860023      -0.00807059      -0.02936151       0.02241815      -0.00805738      -0.02936788       0.02242408
C        0.33769751       2.10739297      -1.30455331      -0.00469101      -0.00335034       0.00391039      -0.00469800      -0.00334280       0.00390380
H        0.85382306       1.72432328      -2.18622969      -0.00133685      -0.00225206       0.00469674      -0.00133507      -0.00225413       0.00469587
H       -0.74056742       1.96688772      -1.41870420      -0.00406418       0.00251893      -0.00408346      -0.00405940       0.00251793      -0.00408230
H        0.53707067       3.17699309      -1.23615087       0.00277358      -0.00662678       0.00810012       0.00277276      -0.00663802       0.00810080
17
Properties=species:S:1:pos:R:3:mp2_forces:R:3:forces:R:3 R1=CH3 R2=H R3=NO2 R4=CH3 lg=F nu=F rxn-id=1791 mp2_energy=-15263.87604426383 energy=-15263.841033696151 free_energy=-15263.876047092428 pbc="F F F"
C        0.53193620      -0.08406587      -0.01490388      -0.01165971      -0.00260424       0.00339459      -0.01604885      -0.00566183       0.00289747
C        0.88191196       1.38707415      -0.09440693      -0.00242521      -0.00766510       0.00221021      -0.00743144      -0.00859627       0.00320913
H        2.02007073       1.31802944      -0.09202214      -0.00095178       0.00565582      -0.00904392      -0.00172795      -0.01081397      -0.01004559
F       -0.85489790      -0.24094108       0.24373155      -0.01891687       0.00032959      -0.03153596      -0.02008853      -0.00235168      -0.01537697
F        3.31699278       0.43761019      -0.38386235       0.00542706       0.05186444      -0.06708304       0.01690792       0.08360277      -0.06639029
H        1.06365561      -0.49722334       0.84011489      -0.03678003      -0.00367419       0.02120702      -0.03294642      -0.00954420       0.01235960
C        0.89646650      -0.82370149      -1.27812497       0.01298691      -0.00833988       0.01697986       0.00581641      -0.00758578       0.01040262
H        0.20713705      -0.56399788      -2.08641017       0.03373623       0.00772622       0.01287562       0.04853336       0.02161476      -0.01840702
H        1.93046052      -0.53984243      -1.49389573       0.01445702      -0.02347607       0.02370712       0.02343110      -0.02798779       0.05382575
H        0.83617543      -1.90192123      -1.10797895      -0.01218444      -0.00551875      -0.00045615      -0.03808619      -0.00782403      -0.00192947
N        0.41958170       2.03270858       1.16573487      -0.01900855       0.03072098      -0.01872262       0.00955261      -0.00991962       0.00877405
O       -0.26668868       3.05829025       1.10459535       0.05070842      -0.00594705       0.01142532       0.02587405       0.01743300       0.00583740
O        0.76750493       1.51644894       2.22862060      -0.00807059      -0.02936151       0.02241815      -0.00686435      -0.01002357      -0.00099936
C        0.34023579       2.10769495      -1.30835071      -0.00469101      -0.00335034       0.00391039      -0.00383283      -0.00650379       0.00379236
H        0.87637169       1.74153050      -2.18507529      -0.00133685      -0.00225206       0.00469674      -0.00720361      -0.01392281       0.00560317
H       -0.73268110       1.94165153      -1.44020541      -0.00406418       0.00251893      -0.00408346      -0.00641124       0.00672663       0.00549394
H        0.51231807       3.18127366      -1.23102221       0.00277358      -0.00662678       0.00810012       0.01052595      -0.00864182       0.00095320
17
Properties=species:S:1:pos:R:3:mp2_forces:R:3:forces:R:3 R1=CH3 R2=H R3=NO2 R4=CH3 lg=F nu=F rxn-id=1791 mp2_energy=-15263.87604426383 energy=-15263.815818775947 free_energy=-15263.876047092428 pbc="F F F"
C        0.54895114      -0.07966970      -0.01711771      -0.01165971      -0.00260424       0.00339459      -0.01945911      -0.00731933       0.00410088
C        0.88791291       1.39491049      -0.09840023      -0.00242521      -0.00766510       0.00221021      -0.00926811      -0.01073603       0.00288450
H        2.02207527       1.32750960      -0.08253373      -0.00095178       0.00565582      -0.00904392      -0.00176015      -0.01821277      -0.01184783
F       -0.83282288      -0.24362780       0.26465245      -0.01891687       0.00032959      -0.03153596      -0.02275615      -0.00588385      -0.01185608
F        3.30025856       0.36725868      -0.31301706       0.00542706       0.05186444      -0.06708304       0.02573956       0.10340088      -0.07333889
H        1.10140922      -0.48931866       0.82522242      -0.03678003      -0.00367419       0.02120702      -0.03586718      -0.01190499       0.01326147
C        0.88966109      -0.81633455      -1.28911253       0.01298691      -0.00833988       0.01697986       0.00444867      -0.00748375       0.01110165
H        0.16423183      -0.58042832      -2.07284414       0.03373623       0.00772622       0.01287562       0.05626430       0.03191767      -0.02723835
H        1.90906141      -0.51814694      -1.54283417       0.01445702      -0.02347607       0.02370712       0.03078142      -0.03363865       0.06957444
H        0.86531547      -1.89440030      -1.10951996      -0.01218444      -0.00551875      -0.00045615      -0.05214626      -0.00991496      -0.00457358
N        0.41415407       2.03616043       1.16126354      -0.01900855       0.03072098      -0.01872262       0.01087890      -0.01064851       0.00890162
O       -0.28676564       3.05155541       1.09722895       0.05070842      -0.00594705       0.01142532       0.02553878       0.01723185       0.00602427
O        0.76584082       1.52453142       2.22469752      -0.00807059      -0.02936151       0.02241815      -0.00365007      -0.00981434      -0.00212807
C        0.34234452       2.11285537      -1.31240468      -0.00469101      -0.00335034       0.00391039      -0.00481190      -0.00816007       0.00374103
H        0.87859001       1.75142927      -2.19109278      -0.00133685      -0.00225206       0.00469674      -0.00921281      -0.01746659       0.00583468
H       -0.72930934       1.93846228      -1.44332898      -0.00406418       0.00251893      -0.00408346      -0.00860721       0.00936313       0.00573103
H        0.50564282       3.18787219      -1.23432039       0.00277358      -0.00662678       0.00810012       0.01388731      -0.01072969      -0.00017278
17
Properties=species:S:1:pos:R:3:mp2_forces:R:3:forces:R:3 R1=CH3 R2=H R3=NO2 R4=CH3 lg=F nu=F rxn-id=1791 mp2_energy=-15263.87604426383 energy=-15263.789734072814 free_energy=-15263.876047092428 pbc="F F F"
C        0.56404849      -0.07463876      -0.02018566      -0.01165971      -0.00260424       0.00339459      -0.02366505      -0.00966353       0.00570150
C        0.89484907       1.40269593      -0.10177987      -0.00242521      -0.00766510       0.00221021      -0.01218223      -0.01325681       0.00205604
H        2.02429906       1.33996297      -0.07423108      -0.00095178       0.00565582      -0.00904392      -0.00257664      -0.03019148      -0.01393171
F       -0.81475488      -0.24099475       0.27621510      -0.01891687       0.00032959      -0.03153596      -0.02469824      -0.01320950      -0.00571319
F        3.28230516       0.29927581      -0.25410292       0.00542706       0.05186444      -0.06708304       0.03338490       0.12207675      -0.07477158
H        1.13079400      -0.48162561       0.81273246      -0.03678003      -0.00367419       0.02120702      -0.03641931      -0.01327687       0.01317718
C        0.88619332      -0.81066343      -1.29789012       0.01298691      -0.00833988       0.01697986       0.00194080      -0.00701916       0.01140989
H        0.13080022      -0.59804057      -2.05983879       0.03373623       0.00772622       0.01287562       0.05945416       0.03964896      -0.03499794
H        1.89094301      -0.50044376      -1.58654990       0.01445702      -0.02347607       0.02370712       0.03573267      -0.03489448       0.08260541
H        0.89410434      -1.88733628      -1.10913299      -0.01218444      -0.00551875      -0.00045615      -0.06188411      -0.01191316      -0.00682712
N        0.41002014       2.03918662       1.15810901      -0.01900855       0.03072098      -0.01872262       0.01209721      -0.01021346       0.00800162
O       -0.30472227       3.04462948       1.09156500       0.05070842      -0.00594705       0.01142532       0.02549991       0.01649591       0.00598346
O        0.76515243       1.53152955       2.22181237      -0.00807059      -0.02936151       0.02241815       0.00077881      -0.00884443      -0.00367246
C        0.34349245       2.11787201      -1.31490323      -0.00469101      -0.00335034       0.00391039      -0.00531159      -0.00881953       0.00295810
H        0.87725739       1.75967932      -2.19643655      -0.00133685      -0.00225206       0.00469674      -0.00961780      -0.01898031       0.00541972
H       -0.72722361       1.93539200      -1.44136499      -0.00406418       0.00251893      -0.00408346      -0.01041094       0.01381146       0.00309985
H        0.49899295       3.19413836      -1.23747933       0.00277358      -0.00662678       0.00810012       0.01787747      -0.01175039      -0.00049877
17
Properties=species:S:1:pos:R:3:mp2_forces:R:3:forces:R:3 R1=CH3 R2=H R3=NO2 R4=CH3 lg=F nu=F rxn-id=1791 mp2_energy=-15263.87604426383 energy=-15263.765053960662 free_energy=-15263.876047092428 pbc="F F F"
C        0.57806452      -0.06850732      -0.02407403      -0.01165971      -0.00260424       0.00339459      -0.03019961      -0.01351835       0.00786768
C        0.90353299       1.41083515      -0.10439337      -0.00242521      -0.00766510       0.00221021      -0.01742486      -0.01706086       0.00090178
H        2.02773865       1.35694304      -0.06697283      -0.00095178       0.00565582      -0.00904392      -0.00536539      -0.04751128      -0.01680897
F       -0.80044895      -0.23164288       0.27836691      -0.01891687       0.00032959      -0.03153596      -0.02729327      -0.02484107       0.00491703
F        3.26567881       0.23444334      -0.20888649       0.00542706       0.05186444      -0.06708304       0.04092786       0.13890674      -0.07256036
H        1.15173711      -0.47433120       0.80354460      -0.03678003      -0.00367419       0.02120702      -0.03413408      -0.01466608       0.01122970
C        0.88607009      -0.80634296      -1.30464716       0.01298691      -0.00833988       0.01697986      -0.00183419      -0.00651617       0.01134701
H        0.10819031      -0.61224359      -2.04888539       0.03373623       0.00772622       0.01287562       0.05974730       0.04313317      -0.04265149
H        1.87865565      -0.48998376      -1.62262011       0.01445702      -0.02347607       0.02370712       0.03776472      -0.03005092       0.09541855
H        0.91697403      -1.88093751      -1.10713899      -0.01218444      -0.00551875      -0.00045615      -0.06594279      -0.01333727      -0.00918801
N        0.40690662       2.04145178       1.15631603      -0.01900855       0.03072098      -0.01872262       0.01208935      -0.00702241       0.00528957
O       -0.32251961       3.03597867       1.08762400       0.05070842      -0.00594705       0.01142532       0.02724051       0.01562902       0.00585665
O        0.76562875       1.53741129       2.22001894      -0.00807059      -0.02936151       0.02241815       0.00716167      -0.00646209      -0.00440562
C        0.34356141       2.12208966      -1.31581683      -0.00469101      -0.00335034       0.00391039      -0.00565800      -0.00830645       0.00133694
H        0.87215022       1.76534652      -2.20102765      -0.00133685      -0.00225206       0.00469674      -0.00785333      -0.01770041       0.00438629
H       -0.72634305       1.93042146      -1.43341783      -0.00406418       0.00251893      -0.00408346      -0.01216325       0.02096429      -0.00403268
H        0.49097372       3.19968720      -1.24145131       0.00277358      -0.00662678       0.00810012       0.02293739      -0.01163987       0.00109593
17
Properties=species:S:1:pos:R:3:mp2_forces:R:3:forces:R:3 R1=CH3 R2=H R3=NO2 R4=CH3 lg=F nu=F rxn-id=1791 mp2_energy=-15263.87604426383 energy=-15263.737561563381 free_energy=-15263.876047092428 pbc="F F F"
C        0.59398503      -0.05946089      -0.02952864      -0.01165971      -0.00260424       0.00339459      -0.04175554      -0.02078443       0.01170812
C        0.91675821       1.42126252      -0.10586719      -0.00242521      -0.00766510       0.00221021      -0.02856879      -0.02431406      -0.00124108
H        2.03507316       1.38235874      -0.05832865      -0.00095178       0.00565582      -0.00904392      -0.01353076      -0.07450983      -0.02251690
F       -0.78760595      -0.21138738       0.27067916      -0.01891687       0.00032959      -0.03153596      -0.03183928      -0.04653009       0.02346592
F        3.24907366       0.16864368      -0.17205250       0.00542706       0.05186444      -0.06708304       0.05466058       0.15242403      -0.06846527
H        1.16622373      -0.46686543       0.79713274      -0.03678003      -0.00367419       0.02120702      -0.02737073      -0.01631929       0.00667439
C        0.88818763      -0.80258757      -1.31078482       0.01298691      -0.00833988       0.01697986      -0.00718360      -0.00573584       0.01166221
H        0.09045714      -0.62418150      -2.03791241       0.03373623       0.00772622       0.01287562       0.05786456       0.04346588      -0.05177588
H        1.86948304      -0.48677772      -1.65895836       0.01445702      -0.02347607       0.02370712       0.03933059      -0.01680387       0.11379445
H        0.93456047      -1.87446264      -1.10250412      -0.01218444      -0.00551875      -0.00045615      -0.06407577      -0.01457486      -0.01286654
N        0.40403513       2.04246604       1.15604455      -0.01900855       0.03072098      -0.01872262       0.01023406      -0.00003788       0.00034721
O       -0.34419866       3.02250881       1.08536542       0.05070842      -0.00594705       0.01142532       0.03210546       0.01726591       0.00514757
O        0.76635603       1.54163154       2.21950231      -0.00807059      -0.02936151       0.02241815       0.01675438      -0.00008383      -0.00432603
C        0.34400120       2.12530007      -1.31518987      -0.00469101      -0.00335034       0.00391039      -0.00744570      -0.00623928      -0.00160665
H        0.86500522       1.76777930      -2.20456972      -0.00133685      -0.00225206       0.00469674      -0.00391722      -0.01182789       0.00293895
H       -0.72442461       1.91952816      -1.41811779      -0.00406418       0.00251893      -0.00408346      -0.01611163       0.03514179      -0.02047634
H        0.47958082       3.20486314      -1.24837161       0.00277358      -0.00662678       0.00810012       0.03084939      -0.01053645       0.00753587
17
Properties=species:S:1:pos:R:3:mp2_forces:R:3:forces:R:3 R1=CH3 R2=H R3=NO2 R4=CH3 lg=F nu=F rxn-id=1791 mp2_energy=-15263.87604426383 energy=-15263.699949131305 free_energy=-15263.876047092428 pbc="F F F"
C        0.61241283      -0.04728037      -0.03593072      -0.01165971      -0.00260424       0.00339459      -0.06005119      -0.03036833       0.01750015
C        0.93480654       1.43451086      -0.10428514      -0.00242521      -0.00766510       0.00221021      -0.04609434      -0.03507673      -0.00545041
H        2.04690926       1.41835569      -0.04498971      -0.00095178       0.00565582      -0.00904392      -0.02632029      -0.12170650      -0.03166253
F       -0.77599031      -0.17907976       0.25405165      -0.01891687       0.00032959      -0.03153596      -0.03786913      -0.08189969       0.05024301
F        3.22955113       0.10835983      -0.14673042       0.00542706       0.05186444      -0.06708304       0.07768167       0.15738038      -0.06267458
H        1.17276295      -0.46053756       0.79472269      -0.03678003      -0.00367419       0.02120702      -0.01167978      -0.01376894      -0.00305042
C        0.88983411      -0.79967827      -1.31675088       0.01298691      -0.00833988       0.01697986      -0.01361692      -0.00300204       0.01329918
H        0.06640355      -0.64240592      -2.01990201       0.03373623       0.00772622       0.01287562       0.05349623       0.04261505      -0.06342854
H        1.85372020      -0.48517743      -1.70801438       0.01445702      -0.02347607       0.02370712       0.04515847       0.00583487       0.14075293
H        0.95552650      -1.86746127      -1.09422442      -0.01218444      -0.00551875      -0.00045615      -0.05703237      -0.01477026      -0.01523372
N        0.40015943       2.04174902       1.15856389      -0.01900855       0.03072098      -0.01872262       0.00806240       0.00887870      -0.00628907
O       -0.36927452       3.00467019       1.08613875       0.05070842      -0.00594705       0.01142532       0.03775069       0.02365942       0.00062966
O        0.76427660       1.54217622       2.22158622      -0.00807059      -0.02936151       0.02241815       0.02647909       0.01266624      -0.00593782
C        0.34887942       2.12689752      -1.31335193      -0.00469101      -0.00335034       0.00391039      -0.01125960      -0.00150370      -0.00558399
H        0.86665452       1.76741312      -2.20392121      -0.00133685      -0.00225206       0.00469674      -0.00106809      -0.00058321       0.00046604
H       -0.71577274       1.89894587      -1.40234534      -0.00406418       0.00251893      -0.00408346      -0.02415036       0.05875468      -0.04418111
H        0.46569183       3.20916113      -1.25807854       0.00277358      -0.00662678       0.00810012       0.04051352      -0.00710993       0.02060123
17
Properties=species:S:1:pos:R:3:mp2_forces:R:3:forces:R:3 R1=CH3 R2=H R3=NO2 R4=CH3 lg=F nu=F rxn-id=1791 mp2_energy=-15263.87604426383 energy=-15263.64997791788 free_energy=-15263.876047092428 pbc="F F F"
C        0.63287305      -0.03727510      -0.04048533      -0.01165971      -0.00260424       0.00339459      -0.08846508      -0.03226274       0.02130123
C        0.95004401       1.44709054      -0.10049182      -0.00242521      -0.00766510       0.00221021      -0.05906743      -0.04298475      -0.00939400
H        2.05500203       1.46498111      -0.02980682      -0.00095178       0.00565582      -0.00904392      -0.02914056      -0.19967745      -0.03612638
F       -0.76360743      -0.15015201       0.23713378      -0.01891687       0.00032959      -0.03153596      -0.04614120      -0.11139080       0.07992000
F        3.20231947       0.05156680      -0.13104056       0.00542706       0.05186444      -0.06708304       0.11023439       0.15859625      -0.05600416
H        1.17672597      -0.45752704       0.79648059      -0.03678003      -0.00367419       0.02120702       0.01122253       0.00093039      -0.02275606
C        0.89127514      -0.79891178      -1.32200037       0.01298691      -0.00833988       0.01697986      -0.02238245       0.00445158       0.01644881
H        0.03406507      -0.66903757      -1.98978680       0.03373623       0.00772622       0.01287562       0.05081429       0.03226465      -0.08462366
H        1.82759937      -0.47964014      -1.76913671       0.01445702      -0.02347607       0.02370712       0.05070876       0.03580470       0.16752848
H        0.98851037      -1.86152797      -1.08770113      -0.01218444      -0.00551875      -0.00045615      -0.05015361      -0.00722705      -0.00734467
N        0.39413885       2.04137878       1.16276956      -0.01900855       0.03072098      -0.01872262       0.00994171       0.01346647      -0.01109538
O       -0.38848890       2.99294449       1.08898637       0.05070842      -0.00594705       0.01142532       0.03553679       0.02811996      -0.00906064
O        0.75699861       1.54033214       2.22525801      -0.00807059      -0.02936151       0.02241815       0.02787906       0.02480856      -0.00998580
C        0.35645079       2.12764749      -1.31193974      -0.00469101      -0.00335034       0.00391039      -0.01119537       0.00660490      -0.00831233
H        0.88051948       1.76867281      -2.19916004      -0.00133685      -0.00225206       0.00469674      -0.00336545       0.00926940      -0.00445009
H       -0.70316297       1.87827257      -1.39846442      -0.00406418       0.00251893      -0.00408346      -0.02815345       0.07686705      -0.05314142
H        0.45528838       3.21180377      -1.26407607       0.00277358      -0.00662678       0.00810012       0.04172707       0.00235887       0.02709607
17
Properties=species:S:1:pos:R:3:mp2_forces:R:3:forces:R:3 R1=CH3 R2=H R3=NO2 R4=CH3 lg=F nu=F rxn-id=1791 mp2_energy=-15263.87604426383 energy=-15263.550086998737 free_energy=-15263.876047092428 pbc="F F F"
C        0.67260169      -0.02493607      -0.04696079      -0.01165971      -0.00260424       0.00339459      -0.18274426      -0.02478286       0.01761336
C        0.97397299       1.46569320      -0.09679145      -0.00242521      -0.00766510       0.00221021      -0.08562269      -0.05361054      -0.00914736
H        2.06549091       1.55601626      -0.01254606      -0.00095178       0.00565582      -0.00904392      -0.02442106      -0.35143923      -0.03811926
F       -0.73984831      -0.10831573       0.20635576      -0.01891687       0.00032959      -0.03153596      -0.07192922      -0.14617425       0.12040070
F        3.14338625      -0.02915481      -0.10892333       0.00542706       0.05186444      -0.06708304       0.24991372       0.14926625      -0.04161718
H        1.17873309      -0.45706057       0.80580694      -0.03678003      -0.00367419       0.02120702       0.06446913       0.03519332      -0.07553427
C        0.90111929      -0.80091645      -1.32916813       0.01298691      -0.00833988       0.01697986      -0.04891608       0.01781437       0.02232904
H        0.00598802      -0.68756314      -1.94858200       0.03373623       0.00772622       0.01287562       0.03943775      -0.00761407      -0.13137504
H        1.80288378      -0.49158746      -1.84697866       0.01445702      -0.02347607       0.02370712       0.04778894       0.09121691       0.21389353
H        1.01855075      -1.85893448      -1.08403458      -0.01218444      -0.00551875      -0.00045615      -0.03429571       0.01427428       0.01290057
N        0.38722250       2.03906455       1.16726049      -0.01900855       0.03072098      -0.01872262       0.01329057       0.02424145      -0.00545411
O       -0.40830539       2.97883876       1.09236873       0.05070842      -0.00594705       0.01142532       0.02154937       0.04157346      -0.01123948
O        0.74572671       1.53269787       2.22831589      -0.00807059      -0.02936151       0.02241815       0.02263137       0.04720712      -0.01084635
C        0.36212808       2.12658587      -1.30927620      -0.00469101      -0.00335034       0.00391039      -0.01193711       0.02225903      -0.01097161
H        0.88737263       1.76665415      -2.19568182      -0.00133685      -0.00225206       0.00469674      -0.00280558       0.02170557      -0.00628021
H       -0.69115139       1.85119792      -1.38294740      -0.00406418       0.00251893      -0.00408346      -0.03307401       0.09697574      -0.06788237
H        0.44067965       3.21233903      -1.27167888       0.00277358      -0.00662678       0.00810012       0.03666486       0.02189347       0.02133002
17
Properties=species:S:1:pos:R:3:mp2_forces:R:3:forces:R:3 R1=CH3 R2=H R3=NO2 R4=CH3 lg=F nu=F rxn-id=1791 mp2_energy=-15263.87604426383 energy=-15263.331895028296 free_energy=-15263.876047092428 pbc="F F F"
C        0.74243822      -0.01590715      -0.05245145      -0.01165971      -0.00260424       0.00339459      -0.64882692       0.00419801       0.02114263
C        1.00906469       1.48609443      -0.09303565      -0.00242521      -0.00766510       0.00221021      -0.11883089      -0.06100041      -0.00131229
H        2.07615081       1.69327167       0.00210605      -0.00095178       0.00565582      -0.00904392       0.00690909      -0.52659358      -0.03615716
F       -0.70955022      -0.05409946       0.16332733      -0.01891687       0.00032959      -0.03153596       0.01799829      -0.18222299       0.10432085
F        3.04265412      -0.08754653      -0.09405039       0.00542706       0.05186444      -0.06708304       0.63135138       0.08718618      -0.01922500
H        1.15413622      -0.47069584       0.83702139      -0.03678003      -0.00367419       0.02120702       0.20816356       0.10254545      -0.19194570
C        0.92123704      -0.80767822      -1.33795940       0.01298691      -0.00833988       0.01697986      -0.10968577       0.03058011       0.05274579
H       -0.00630480      -0.67971829      -1.90324763       0.03373623       0.00772622       0.01287562       0.00652100      -0.08673121      -0.20797389
H        1.78833008      -0.52975775      -1.92922663       0.01445702      -0.02347607       0.02370712       0.03635596       0.15901059       0.30079278
H        1.02641141      -1.86559572      -1.08591124      -0.01218444      -0.00551875      -0.00045615      -0.00914297       0.03971471       0.02859665
N        0.38410760       2.02865233       1.17095405      -0.01900855       0.03072098      -0.01872262       0.02696850       0.06725661       0.02355585
O       -0.42195811       2.95782228       1.09475039       0.05070842      -0.00594705       0.01142532      -0.02237715       0.07413537       0.01292361
O        0.73823892       1.51657906       2.23041150      -0.00807059      -0.02936151       0.02241815      -0.00217151       0.07496606      -0.00997316
C        0.36719157       2.11869838      -1.30567329      -0.00469101      -0.00335034       0.00391039      -0.01313853       0.04162436      -0.00844199
H        0.88655327       1.75783405      -2.19596474      -0.00133685      -0.00225206       0.00469674       0.00246535       0.02467041       0.01319380
H       -0.67887735       1.81684098      -1.35394000      -0.00406418       0.00251893      -0.00408346      -0.03564422       0.11058389      -0.08823022
H        0.42672779       3.20582465      -1.28057179       0.00277358      -0.00662678       0.00810012       0.02308483       0.04007642       0.00598746
17
Properties=species:S:1:pos:R:3:mp2_forces:R:3:forces:R:3 R1=CH3 R2=H R3=NO2 R4=CH3 lg=F nu=F rxn-id=1791 mp2_energy=-15263.87604426383 energy=-15263.027274920141 free_energy=-15263.876047092428 pbc="F F F"
C        0.84181314      -0.01577302      -0.05888865      -0.01165971      -0.00260424       0.00339459      -1.59060159       0.00789708       0.13484294
C        1.02790321       1.49464628      -0.09188900      -0.00242521      -0.00766510       0.00221021      -0.07111692      -0.03266712      -0.00331094
H        2.07468767       1.77749254       0.00771383      -0.00095178       0.00565582      -0.00904392       0.04269472      -0.44796396      -0.02442396
F       -0.71231567      -0.02527593       0.14547025      -0.01891687       0.00032959      -0.03153596       0.52882919      -0.16175216      -0.01680481
F        2.94894262      -0.09948537      -0.09269929       0.00542706       0.05186444      -0.06708304       0.89415412       0.01803144      -0.01163857
H        1.12135230      -0.48810697       0.86909630      -0.03678003      -0.00367419       0.02120702       0.31970829       0.10657971      -0.20818405
C        0.93728895      -0.81404009      -1.34440374       0.01298691      -0.00833988       0.01697986      -0.09741921       0.03358335       0.04322405