17
Properties=species:S:1:pos:R:3:mp2_forces:R:3:forces:R:3 R1=NH2 R2=CN R3=CH3 R4=NO2 lg=Cl nu=F rxn-id=2641 mp2_energy=-28002.387738426252 energy=-28002.387738426252 free_energy=-28002.387738426252 pbc="F F F"
C        0.40749258      -0.10373813      -0.04522433      -0.00843827      -0.03736395       0.08287885      -0.00843827      -0.03736395       0.08287885
C        0.85084973       1.38271630      -0.02793277       0.00357446      -0.01424274      -0.00326051       0.00357446      -0.01424274      -0.00326051
H        1.91180186       1.32250772      -0.28417052      -0.00145314      -0.00756166       0.00387186      -0.00145314      -0.00756166       0.00387186
Cl      -1.36967444      -0.25641579      -0.47291713       0.04748297       0.03127742       0.02042898       0.04748297       0.03127742       0.02042898
F        3.04933298       0.04628434       0.52654540       0.00663563      -0.04280169      -0.04611749       0.00663563      -0.04280169      -0.04611749
N        1.18663990      -0.82687401      -0.99199962       0.00477174       0.00306392      -0.08826250       0.00477174       0.00306392      -0.08826250
H        0.90919881      -1.80243278      -0.96887805       0.02471636      -0.02686888       0.05269119       0.02471636      -0.02686888       0.05269119
H        2.14902922      -0.70312489      -0.57256368       0.00728644       0.07739783      -0.01097143       0.00728644       0.07739783      -0.01097143
C        0.48101874      -0.66869922       1.32044466      -0.01666156       0.01787053       0.02447841      -0.01666156       0.01787053       0.02447841
N        0.47458092      -1.20042532       2.36890864      -0.02096235      -0.00056810       0.00623698      -0.02096235      -0.00056810       0.00623698
C        0.69090443       2.07470313       1.30621023      -0.01821475      -0.01632896      -0.02054906      -0.01821475      -0.01632896      -0.02054906
H       -0.31139422       1.95520668       1.72093229       0.00195991       0.00028048       0.01346536       0.00195991       0.00028048       0.01346536
H        1.43983645       1.63921459       1.96896020      -0.03503381      -0.01069539      -0.02100664      -0.03503381      -0.01069539      -0.02100664
H        0.89291988       3.14272314       1.19769010      -0.00186173      -0.02419514      -0.00038249      -0.00186173      -0.02419514      -0.00038249
N        0.13754494       2.12162189      -1.11351792       0.03037184       0.03316032      -0.01992634       0.03037184       0.03316032      -0.01992634
O       -0.80187458       2.85573952      -0.79897591      -0.02422804       0.02353485      -0.01128612      -0.02422804       0.02353485      -0.01128612
O        0.53525220       1.95629156      -2.26513808       0.00005429      -0.00595886       0.01771094       0.00005429      -0.00595886       0.01771094
17
Properties=species:S:1:pos:R:3:mp2_forces:R:3:forces:R:3 R1=NH2 R2=CN R3=CH3 R4=NO2 lg=Cl nu=F rxn-id=2641 mp2_energy=-28002.387738426252 energy=-28002.376224673455 free_energy=-28002.387738426252 pbc="F F F"
C        0.43602672      -0.09986595      -0.03513233      -0.00843827      -0.03736395       0.08287885      -0.01650333      -0.00169166      -0.00153358
C        0.86247632       1.38978251      -0.02706780       0.00357446      -0.01424274      -0.00326051      -0.00672963      -0.00470261       0.00153971
H        1.92333829       1.34965131      -0.28231754      -0.00145314      -0.00756166       0.00387186      -0.00357456      -0.01884560       0.01197090
Cl      -1.35136438      -0.24029262      -0.40486000       0.04748297       0.03127742       0.02042898      -0.01994122       0.00594854      -0.00173248
F        3.00259309      -0.02550314       0.58091895       0.00663563      -0.04280169      -0.04611749       0.03642172       0.01367149      -0.06012976
N        1.18372762      -0.81208246      -1.02011614       0.00477174       0.00306392      -0.08826250      -0.01398280      -0.00513420       0.00681815
H        0.88073893      -1.78087670      -1.02109369       0.02471636      -0.02686888       0.05269119       0.02668243      -0.02090198       0.05484298
H        2.14554905      -0.72734495      -0.59483619       0.00728644       0.07739783      -0.01097143      -0.00447019       0.04398331      -0.00944139
C        0.54520260      -0.66905569       1.32790373      -0.01666156       0.01787053       0.02447841      -0.02232221      -0.00225852      -0.00238815
N        0.49866495      -1.20008279       2.37596872      -0.02096235      -0.00056810       0.00623698       0.00454410      -0.00585387      -0.00193334
C        0.67267551       2.07965662       1.30241079      -0.01821475      -0.01632896      -0.02054906      -0.00610282      -0.00598791       0.00154136
H       -0.32941428       1.93180548       1.70889292       0.00195991       0.00028048       0.01346536      -0.00857567       0.00339587      -0.00172376
H        1.42224289       1.66142860       1.97406371      -0.03503381      -0.01069539      -0.02100664      -0.01206725      -0.01255277       0.00395414
H        0.84420004       3.15243490       1.19543984      -0.00186173      -0.02419514      -0.00038249       0.00573993      -0.00826751       0.00272026
N        0.14592926       2.12070674      -1.12282787       0.03037184       0.03316032      -0.01992634       0.00880472       0.00302278      -0.00080883
O       -0.77919120       2.87651798      -0.81504385      -0.02422804       0.02353485      -0.01128612       0.01045653       0.00733488      -0.00605195
O        0.53006399       1.92841887      -2.27392977       0.00005429      -0.00595886       0.01771094       0.02162024       0.00883977       0.00235575
17
Properties=species:S:1:pos:R:3:mp2_forces:R:3:forces:R:3 R1=NH2 R2=CN R3=CH3 R4=NO2 lg=Cl nu=F rxn-id=2641 mp2_energy=-28002.387738426252 energy=-28002.35357918141 free_energy=-28002.387738426252 pbc="F F F"
C        0.45936233      -0.09556634      -0.03035253      -0.00843827      -0.03736395       0.08287885      -0.02825740      -0.00248287      -0.00462305
C        0.87153198       1.39720732      -0.02812929       0.00357446      -0.01424274      -0.00326051      -0.01084832      -0.00792567      -0.00005464
H        1.92897977       1.37411291      -0.29249266      -0.00145314      -0.00756166       0.00387186      -0.00665072      -0.03015837       0.01335636
Cl      -1.32930861      -0.24323928      -0.38863027       0.04748297       0.03127742       0.02042898      -0.03119271       0.00636469      -0.00703522
F        2.95202667      -0.04409255       0.65601037       0.00663563      -0.04280169      -0.04611749       0.05250519       0.01179052      -0.07889281
N        1.19414929      -0.80616233      -1.03141840       0.00477174       0.00306392      -0.08826250      -0.02031287      -0.00386958       0.00837732
H        0.84221454      -1.75614169      -1.08323518       0.02471636      -0.02686888       0.05269119       0.04561680      -0.03859364       0.08521088
H        2.14540916      -0.78127526      -0.59271814       0.00728644       0.07739783      -0.01097143      -0.00383464       0.08261643      -0.00466644
C        0.58339240      -0.66744097       1.33022073      -0.01666156       0.01787053       0.02447841      -0.03909486      -0.00371407      -0.00599760
N        0.50837248      -1.20082993       2.37574917      -0.02096235      -0.00056810       0.00623698       0.00250888      -0.00878683      -0.00339405
C        0.67462082       2.08743085       1.30037991      -0.01821475      -0.01632896      -0.02054906      -0.00444730      -0.00970385       0.00059868
H       -0.32550939       1.92483805       1.70607737       0.00195991       0.00028048       0.01346536      -0.00660442       0.00389899       0.00000856
H        1.42927695       1.67818656       1.97167537      -0.03503381      -0.01069539      -0.02100664      -0.00973960      -0.01936226       0.00056417
H        0.82950210       3.16279987       1.19308309      -0.00186173      -0.02419514      -0.00038249       0.01228552      -0.01274794       0.00077026
N        0.14038994       2.11720887      -1.12491571       0.03037184       0.03316032      -0.01992634       0.00972646       0.00537665      -0.00112055
O       -0.78506416       2.87147573      -0.81497225      -0.02422804       0.02353485      -0.01128612       0.01087291       0.00872620      -0.00522877
O        0.51411315       1.91678694      -2.27795809       0.00005429      -0.00595886       0.01771094       0.02746709       0.01857158       0.00212691
17
Properties=species:S:1:pos:R:3:mp2_forces:R:3:forces:R:3 R1=NH2 R2=CN R3=CH3 R4=NO2 lg=Cl nu=F rxn-id=2641 mp2_energy=-28002.387738426252 energy=-28002.320545255978 free_energy=-28002.387738426252 pbc="F F F"
C        0.48628839      -0.09142239      -0.02497507      -0.00843827      -0.03736395       0.08287885      -0.04607878      -0.00352732      -0.00882927
C        0.88186262       1.40548928      -0.02884379       0.00357446      -0.01424274      -0.00326051      -0.01785654      -0.01309767      -0.00231611
H        1.93526876       1.40229432      -0.30478028      -0.00145314      -0.00756166       0.00387186      -0.01125024      -0.04940099       0.01680780
Cl      -1.30379952      -0.24639341      -0.37911279       0.04748297       0.03127742       0.02042898      -0.04524074       0.00514621      -0.00986051
F        2.90542125      -0.04790909       0.72327253       0.00663563      -0.04280169      -0.04611749       0.06635128       0.00136363      -0.08270678
N        1.20887163      -0.80523441      -1.03807942       0.00477174       0.00306392      -0.08826250      -0.02887587       0.00295993       0.00658446
H        0.80264577      -1.72778915      -1.14411970       0.02471636      -0.02686888       0.05269119       0.06370027      -0.05987037       0.10903742
H        2.14704276      -0.84934426      -0.59207219       0.00728644       0.07739783      -0.01097143      -0.00223618       0.13379396       0.00449534
C        0.61809145      -0.66494365       1.33368047      -0.01666156       0.01787053       0.02447841      -0.05159355      -0.00516468      -0.01135575
N        0.50679710      -1.20260768       2.37427344      -0.02096235      -0.00056810       0.00623698       0.01099771      -0.00985986      -0.00397107
C        0.67824888       2.09540143       1.29917096      -0.01821475      -0.01632896      -0.02054906      -0.00361718      -0.01396125      -0.00137105
H       -0.32117697       1.92135847       1.70177498       0.00195991       0.00028048       0.01346536      -0.00437703       0.00391428       0.00436587
H        1.43529440       1.69228114       1.97130554      -0.03503381      -0.01069539      -0.02100664      -0.00561947      -0.02661005      -0.00645369
H        0.82060484       3.17272488       1.19284310      -0.00186173      -0.02419514      -0.00038249       0.01737347      -0.01758674      -0.00356990
N        0.13235112       2.11298490      -1.12470051       0.03037184       0.03316032      -0.01992634       0.01149314       0.00900384      -0.00359056
O       -0.79323616       2.86522623      -0.81104118      -0.02422804       0.02353485      -0.01128612       0.01411016       0.01389884      -0.00638352
O        0.49288309       1.90318213      -2.28022256       0.00005429      -0.00595886       0.01771094       0.03271959       0.02899824      -0.00088269
17
Properties=species:S:1:pos:R:3:mp2_forces:R:3:forces:R:3 R1=NH2 R2=CN R3=CH3 R4=NO2 lg=Cl nu=F rxn-id=2641 mp2_energy=-28002.387738426252 energy=-28002.273472082135 free_energy=-28002.387738426252 pbc="F F F"
C        0.51886457      -0.08726799      -0.01909084      -0.00843827      -0.03736395       0.08287885      -0.08076404      -0.00443100      -0.01701763
C        0.89528220       1.41546285      -0.02831212       0.00357446      -0.01424274      -0.00326051      -0.03334363      -0.02241976      -0.00697517
H        1.94370108       1.43723530      -0.31859161      -0.00145314      -0.00756166       0.00387186      -0.02044577      -0.09386856       0.02501636
Cl      -1.27391027      -0.24889648      -0.37790695       0.04748297       0.03127742       0.02042898      -0.06365992       0.00545102      -0.00639462
F        2.86670559      -0.03817833       0.77226484       0.00663563      -0.04280169      -0.04611749       0.08480770      -0.02590235      -0.05513999
N        1.22890921      -0.81058746      -1.03945400       0.00477174       0.00306392      -0.08826250      -0.04316256       0.01893772       0.00085169
H        0.76137936      -1.69368038      -1.20397956       0.02471636      -0.02686888       0.05269119       0.08533623      -0.08625628       0.11903201
H        2.15003171      -0.93603460      -0.59182806       0.00728644       0.07739783      -0.01097143      -0.00332681       0.20770087       0.02738390
C        0.64638567      -0.66130277       1.33890469      -0.01666156       0.01787053       0.02447841      -0.04964426      -0.00341210      -0.02202062
N        0.49133818      -1.20363890       2.37210174      -0.02096235      -0.00056810       0.00623698       0.04103395      -0.00525641      -0.00651218
C        0.68305261       2.10403235       1.29971188      -0.01821475      -0.01632896      -0.02054906      -0.00577869      -0.02009664      -0.00623065
H       -0.31723193       1.91949025       1.69521138       0.00195991       0.00028048       0.01346536      -0.00301512       0.00495959       0.01385766
H        1.43927735       1.70679498       1.97611781      -0.03503381      -0.01069539      -0.02100664      -0.00010885      -0.03781641      -0.02223120
H        0.81439486       3.18320566       1.19592545      -0.00186173      -0.02419514      -0.00038249       0.02073424      -0.02464303      -0.01217161
N        0.12238854       2.10714726      -1.12095244       0.03037184       0.03316032      -0.01992634       0.01400642       0.01660171      -0.01075038
O       -0.80309791       2.85709665      -0.80255340      -0.02422804       0.02353485      -0.01128612       0.02052925       0.02596117      -0.01118374
O        0.46598858       1.88442034      -2.27919529       0.00005429      -0.00595886       0.01771094       0.03680186       0.04449046      -0.00951383
17
Properties=species:S:1:pos:R:3:mp2_forces:R:3:forces:R:3 R1=NH2 R2=CN R3=CH3 R4=NO2 lg=Cl nu=F rxn-id=2641 mp2_energy=-28002.387738426252 energy=-28002.204828635935 free_energy=-28002.387738426252 pbc="F F F"
C        0.55734975      -0.08432530      -0.01064748      -0.00843827      -0.03736395       0.08287885      -0.16217308      -0.00414009      -0.04189343
C        0.91088383       1.42645926      -0.02475910       0.00357446      -0.01424274      -0.00326051      -0.05731532      -0.03702861      -0.01583087
H        1.95300144       1.48179105      -0.33054116      -0.00145314      -0.00756166       0.00387186      -0.02767417      -0.18274010       0.04313192
Cl      -1.24446756      -0.25162879      -0.37987526       0.04748297       0.03127742       0.02042898      -0.05640228       0.01808890       0.00958858
F        2.83147703      -0.02489090       0.79474915       0.00663563      -0.04280169      -0.04611749       0.14067123      -0.06150370       0.00594727
N        1.25028819      -0.82022854      -1.03799315       0.00477174       0.00306392      -0.08826250      -0.07256916       0.03991412      -0.00931483
H        0.72019461      -1.65314760      -1.25840391       0.02471636      -0.02686888       0.05269119       0.11140558      -0.12454107       0.09979805
H        2.15250419      -1.03408820      -0.60121537       0.00728644       0.07739783      -0.01097143      -0.02485597       0.30486747       0.09233017
C        0.66687440      -0.65920356       1.34771257      -0.01666156       0.01787053       0.02447841      -0.00904965       0.01199613      -0.04354315
N        0.47273700      -1.20233340       2.37466999      -0.02096235      -0.00056810       0.00623698       0.07783914       0.00900433      -0.02787140
C        0.68580921       2.11327598       1.30293193      -0.01821475      -0.01632896      -0.02054906      -0.01178037      -0.02889444      -0.01432526
H       -0.31614320       1.91668072       1.68783942       0.00195991       0.00028048       0.01346536      -0.00493304       0.00833780       0.02609589
H        1.43863205       1.72449896       1.98791431      -0.03503381      -0.01069539      -0.02100664       0.00440248      -0.05233952      -0.04415799
H        0.80507451       3.19439023       1.20208166      -0.00186173      -0.02419514      -0.00038249       0.02089747      -0.03396559      -0.02250811
N        0.11483058       2.09910134      -1.11537527       0.03037184       0.03316032      -0.01992634       0.01643853       0.03044062      -0.02020731
O       -0.81008611       2.84888643      -0.79626436      -0.02422804       0.02353485      -0.01128612       0.02267031       0.03876444      -0.01495330
O        0.44449948       1.86006105      -2.27445043       0.00005429      -0.00595886       0.01771094       0.03242829       0.06373932      -0.02228623
17
Properties=species:S:1:pos:R:3:mp2_forces:R:3:forces:R:3 R1=NH2 R2=CN R3=CH3 R4=NO2 lg=Cl nu=F rxn-id=2641 mp2_energy=-28002.387738426252 energy=-28002.10094137052 free_energy=-28002.387738426252 pbc="F F F"
C        0.60757264      -0.08284895       0.00322482      -0.00843827      -0.03736395       0.08287885      -0.43351509      -0.01877582      -0.12399569
C        0.92736451       1.43753966      -0.02015805       0.00357446      -0.01424274      -0.00326051      -0.08112407      -0.05815064      -0.02418582
H        1.96006547       1.53797092      -0.34405149      -0.00145314      -0.00756166       0.00387186      -0.02232182      -0.29243936       0.06822316
Cl      -1.22731796      -0.25652638      -0.38160020       0.04748297       0.03127742       0.02042898       0.09361026       0.05418095       0.03247559
F        2.78453917      -0.00930954       0.79862815       0.00663563      -0.04280169      -0.04611749       0.29542598      -0.07899494       0.10399191
N        1.27132669      -0.83196552      -1.03599136       0.00477174       0.00306392      -0.08826250      -0.13497303       0.05410818      -0.02467218
H        0.68637191      -1.61704701      -1.28510730       0.02471636      -0.02686888       0.05269119       0.13261053      -0.18468985       0.02409659
H        2.16176671      -1.12431962      -0.63407391       0.00728644       0.07739783      -0.01097143      -0.08837185       0.40113731       0.21465323
C        0.67099689      -0.66341881       1.36019887      -0.01666156       0.01787053       0.02447841       0.10198395       0.04895729      -0.06554221
N        0.45342808      -1.20588895       2.38340175      -0.02096235      -0.00056810       0.00623698       0.09342271       0.02963150      -0.06971839
C        0.68843853       2.12173090       1.30664573      -0.01821475      -0.01632896      -0.02054906      -0.01667421      -0.03697188      -0.01779543
H       -0.31549832       1.91398240       1.67982111       0.00195991       0.00028048       0.01346536      -0.00865530       0.01306994       0.03565956
H        1.43638449       1.73922912       2.00013739      -0.03503381      -0.01069539      -0.02100664       0.00873077      -0.06012315      -0.05507053
H        0.79834261       3.20424803       1.20881950      -0.00186173      -0.02419514      -0.00038249       0.01636655      -0.03900748      -0.02611684
N        0.10977898       2.09028376      -1.11011374       0.03037184       0.03316032      -0.01992634       0.02119837       0.05406860      -0.02398793
O       -0.81422305       2.84106999      -0.79287852      -0.02422804       0.02353485      -0.01128612       0.00851301       0.04341259      -0.01762681
O        0.43412204       1.84056874      -2.26852923       0.00005429      -0.00595886       0.01771094       0.01377325       0.07058675      -0.03038820
17
Properties=species:S:1:pos:R:3:mp2_forces:R:3:forces:R:3 R1=NH2 R2=CN R3=CH3 R4=NO2 lg=Cl nu=F rxn-id=2641 mp2_energy=-28002.387738426252 energy=-28001.935935609414 free_energy=-28002.387738426252 pbc="F F F"
C        0.68205674      -0.07921128       0.02436711      -0.00843827      -0.03736395       0.08287885      -0.88938138      -0.05440722      -0.25562431
C        0.94146707       1.44743668      -0.01615286       0.00357446      -0.01424274      -0.00326051      -0.07049396      -0.06828751      -0.01846555
H        1.96405729       1.58798818      -0.35577536      -0.00145314      -0.00756166       0.00387186      -0.00632547      -0.29899762       0.07043699
Cl      -1.24302581      -0.26546261      -0.38728408       0.04748297       0.03127742       0.02042898       0.37403650       0.09495859       0.06116654
F        2.73492813       0.00598648       0.77858181       0.00663563      -0.04280169      -0.04611749       0.44305354      -0.05450179       0.19797371
N        1.29364052      -0.84168021      -1.03177915       0.00477174       0.00306392      -0.08826250      -0.17197361       0.04535060      -0.03527374
H        0.66464509      -1.58937213      -1.28331165       0.02471636      -0.02686888       0.05269119       0.12832645      -0.21461094      -0.05258630
H        2.17817552      -1.18952709      -0.67176506       0.00728644       0.07739783      -0.01097143      -0.11501417       0.38718844       0.25972576
C        0.65184856      -0.67170133       1.37014288      -0.01666156       0.01787053       0.02447841       0.22042861       0.07169847      -0.04627711
N        0.43525856      -1.21231111       2.39398791      -0.02096235      -0.00056810       0.00623698       0.07153162       0.02872066      -0.07257836
C        0.69134984       2.12760189       1.30952232      -0.01821475      -0.01632896      -0.02054906      -0.01151391      -0.03312970      -0.01113670
H       -0.31431016       1.91200055       1.67323521       0.00195991       0.00028048       0.01346536      -0.00780347       0.01419497       0.03091062
H        1.43457309       1.74806636       2.00922557      -0.03503381      -0.01069539      -0.02100664       0.01186383      -0.05220559      -0.04591664
H        0.79664179       3.21038124       1.21331664      -0.00186173      -0.02419514      -0.00038249       0.00913434      -0.02966794      -0.01723267
N        0.10601947       2.08130313      -1.10567190       0.03037184       0.03316032      -0.01992634       0.03112462       0.07364229      -0.01798429
O       -0.81499342       2.83463450      -0.78905634      -0.02422804       0.02353485      -0.01128612      -0.01065772       0.03647449      -0.01929977
O        0.43112711       1.82916546      -2.26320953       0.00005429      -0.00595886       0.01771094      -0.00633580       0.05357978      -0.02783820
17
Properties=species:S:1:pos:R:3:mp2_forces:R:3:forces:R:3 R1=NH2 R2=CN R3=CH3 R4=NO2 lg=Cl nu=F rxn-id=2641 mp2_energy=-28002.387738426252 energy=-28001.766812733265 free_energy=-28002.387738426252 pbc="F F F"
C        0.77229237      -0.07357865       0.05028254      -0.00843827      -0.03736395       0.08287885      -0.75176536      -0.04309937      -0.21986605
C        0.94867099       1.45431545      -0.01420095       0.00357446      -0.01424274      -0.00326051      -0.02448188      -0.04180840      -0.00337245
H        1.96474739       1.61828742      -0.36276489      -0.00145314      -0.00756166       0.00387186       0.00543891      -0.16283065       0.03954868
Cl      -1.28100012      -0.27491654      -0.39349562       0.04748297       0.03127742       0.02042898       0.31355167       0.06762840       0.04549958
F        2.69029550       0.01167520       0.75793144       0.00663563      -0.04280169      -0.04611749       0.32211535      -0.01217775       0.14650150
N        1.31078230      -0.84638593      -1.02827026       0.00477174       0.00306392      -0.08826250      -0.10083826       0.01678286      -0.02255375
H        0.65183495      -1.56867284      -1.27611519       0.02471636      -0.02686888       0.05269119       0.07548305      -0.13500164      -0.04175714
H        2.19001007      -1.22752551      -0.69824454       0.00728644       0.07739783      -0.01097143      -0.05722948       0.21540006       0.15301063
C        0.62932873      -0.67860263       1.37359068      -0.01666156       0.01787053       0.02447841       0.17333224       0.04517905      -0.01134074
N        0.42787248      -1.21581477       2.40140058      -0.02096235      -0.00056810       0.00623698       0.03096584       0.00802473      -0.03337649
C        0.69239339       2.13082310       1.31074177      -0.01821475      -0.01632896      -0.02054906      -0.00212519      -0.01765450      -0.00325980
H       -0.31375310       1.91051004       1.66988095       0.00195991       0.00028048       0.01346536      -0.00387547       0.00785574       0.01339953
H        1.43308326       1.75286693       2.01392669      -0.03503381      -0.01069539      -0.02100664       0.00744053      -0.03008326      -0.02388860
H        0.79586616       3.21323442       1.21488395      -0.00186173      -0.02419514      -0.00038249       0.00485639      -0.01435352      -0.00776602
N        0.10290181       2.07387790      -1.10377739       0.03037184       0.03316032      -0.01992634       0.02617839       0.05164354      -0.00598862
O       -0.81332079       2.83159547      -0.78702722      -0.02422804       0.02353485      -0.01128612      -0.00924927       0.02063150      -0.01125324
O        0.43145400       1.82360966      -2.26036902       0.00005429      -0.00595886       0.01771094      -0.00979745       0.02386321      -0.01353702
17
Properties=species:S:1:pos:R:3:mp2_forces:R:3:forces:R:3 R1=NH2 R2=CN R3=CH3 R4=NO2 lg=Cl nu=F rxn-id=2641 mp2_energy=-28002.387738426252 energy=-28001.705528286762 free_energy=-28002.387738426252 pbc="F F F"
C        0.86818277      -0.06800434       0.07839111      -0.00843827      -0.03736395       0.08287885       0.13488698       0.00793720       0.04081482
C        0.95184644       1.45957917      -0.01372740       0.00357446      -0.01424274      -0.00326051       0.00370370       0.00592418       0.00023381
H        1.96413814       1.63900236      -0.36765258      -0.00145314      -0.00756166       0.00387186      -0.00024302       0.02586306      -0.00532746
Cl      -1.32124670      -0.28318166      -0.39942546       0.04748297       0.03127742       0.02042898      -0.05817837      -0.00784316      -0.00856734
F        2.64960988       0.01345540       0.73870624       0.00663563      -0.04280169      -0.04611749      -0.05309586       0.00322956      -0.03033892
N        1.32322882      -0.84884519      -1.02541980       0.00477174       0.00306392      -0.08826250       0.01271341      -0.00382593       0.00446238
H        0.64245715      -1.55293074      -1.26829505       0.02471636      -0.02686888       0.05269119      -0.00991716       0.00967076       0.03140464
H        2.19777114      -1.25312714      -0.71817916       0.00728644       0.07739783      -0.01097143       0.01343941      -0.01872094      -0.03002484
C        0.60707525      -0.68389366       1.37347668      -0.01666156       0.01787053       0.02447841      -0.03115969      -0.00271517      -0.01369526
N        0.42368934      -1.21774082       2.40589562      -0.02096235      -0.00056810       0.00623698      -0.00733696      -0.00900688       0.00617487
C        0.69252741       2.13290589       1.31122702      -0.01821475      -0.01632896      -0.02054906      -0.00114215       0.00098695       0.00079013
H       -0.31353059       1.90948145       1.66785890       0.00195991       0.00028048       0.01346536      -0.00198049      -0.00143132      -0.00480302
H        1.43178629       1.75603511       2.01692107      -0.03503381      -0.01069539      -0.02100664      -0.00458411      -0.00136703       0.00319129
H        0.79549104       3.21485794       1.21568476      -0.00186173      -0.02419514      -0.00038249       0.00142041       0.00005484      -0.00026479
N        0.09961819       2.06740911      -1.10295699       0.03037184       0.03316032      -0.01992634      -0.00422142      -0.00800916       0.00116251
O       -0.81144272       2.82982527      -0.78549675      -0.02422804       0.02353485      -0.01128612       0.00814250       0.00411860       0.00288070
O        0.43225754       1.82047057      -2.25863471       0.00005429      -0.00595886       0.01771094      -0.00244718      -0.00486554       0.00190647
17
Properties=species:S:1:pos:R:3:mp2_forces:R:3:forces:R:3 R1=NH2 R2=CN R3=CH3 R4=NO2 lg=Cl nu=F rxn-id=2641 mp2_energy=-28002.387738426252 energy=-28001.823848415668 free_energy=-28002.387738426252 pbc="F F F"
C        0.96688651      -0.06280442       0.10807295      -0.00843827      -0.03736395       0.08287885       1.25760111       0.06672007       0.37893505
C        0.95339236       1.46347969      -0.01400528       0.00357446      -0.01424274      -0.00326051       0.02026845       0.04960059      -0.00360415
H        1.96310098       1.65586079      -0.37198413      -0.00145314      -0.00756166       0.00387186      -0.01215255       0.21530643      -0.05434819
Cl      -1.36060399      -0.29076238      -0.40413140       0.04748297       0.03127742       0.02042898      -0.50521113      -0.09343699      -0.06098756
F        2.61035065       0.01350508       0.72078755       0.00663563      -0.04280169      -0.04611749      -0.49930587       0.00238735      -0.23306432
N        1.33346157      -0.84843133      -1.02217363       0.00477174       0.00306392      -0.08826250       0.12818864       0.00334841       0.04162273
H        0.63472462      -1.53834683      -1.25914570       0.02471636      -0.02686888       0.05269119      -0.09657617       0.17577704       0.13615033