12
Properties=species:S:1:pos:R:3:mp2_forces:R:3:forces:R:3 R1=H R2=H R3=CN R4=NO2 lg=Br nu=Cl rxn-id=84 mp2_energy=-92733.20104278612 energy=-92733.20104278612 free_energy=-92733.20104278612 pbc="F F F"
C        0.61786177      -0.05063878       0.01435009      -0.00066786      -0.04085457       0.00199618      -0.00066786      -0.04085457       0.00199618
C        1.15897588       1.36066468       0.00413818      -0.00783687      -0.03866538       0.00749254      -0.00783687      -0.03866538       0.00749254
H        2.25453859       1.20275699      -0.07208223       0.00879787      -0.01408053       0.01914502       0.00879787      -0.01408053       0.01914502
Br      -1.33377857      -0.11964565       0.03346576       0.01599574       0.08544782       0.01040436       0.01599574       0.08544782       0.01040436
Cl       3.74088223      -0.50649151       0.12571955       0.01231517       0.05934613      -0.00415212       0.01231517       0.05934613      -0.00415212
H        0.96937944      -0.56885970      -0.87054200       0.00731296      -0.03084699      -0.02685270       0.00731296      -0.03084699      -0.02685270
H        0.99003249      -0.55868120       0.89794853       0.00252320      -0.03681756       0.00965077       0.00252320      -0.03681756       0.00965077
C        0.82954775       2.13515989       1.19176108       0.03136677      -0.02733134      -0.02454243       0.03136677      -0.02733134      -0.02454243
N        0.61578243       2.71580172       2.18922393      -0.04317133       0.02252067       0.01969641      -0.04317133       0.02252067       0.01969641
N        0.72290233       2.09335714      -1.23476555      -0.02988997      -0.04326459      -0.01121708      -0.02988997      -0.04326459      -0.01121708
O        0.25281462       3.22132768      -1.11412978       0.02888941       0.04596845      -0.02222376       0.02888941       0.04596845      -0.02222376
O        0.89440847       1.49788510      -2.29261884      -0.02563513       0.01857789       0.02060281      -0.02563513       0.01857789       0.02060281
12
Properties=species:S:1:pos:R:3:mp2_forces:R:3:forces:R:3 R1=H R2=H R3=CN R4=NO2 lg=Br nu=Cl rxn-id=84 mp2_energy=-92733.20104278612 energy=-92733.20679725883 free_energy=-92733.20104278612 pbc="F F F"
C        0.63731799      -0.04880144       0.01684382      -0.00066786      -0.04085457       0.00199618      -0.00727781      -0.00607212      -0.00103251
C        1.17401437       1.36431381       0.00622932      -0.00783687      -0.03866538       0.00749254      -0.00906251      -0.00762328       0.00061254
H        2.27136084       1.22585384      -0.07242794       0.00879787      -0.01408053       0.01914502      -0.00957252      -0.02807739       0.00847159
Br      -1.31623338      -0.06970213       0.03521566       0.01599574       0.08544782       0.01040436      -0.01655048      -0.01791232       0.00902542
Cl       3.73050334      -0.53711941       0.11331364       0.01231517       0.05934613      -0.00415212       0.02006321       0.04862551      -0.00887251
H        0.98549613      -0.56681582      -0.87018222       0.00731296      -0.03084699      -0.02685270      -0.01624775      -0.00921072      -0.00365310
H        1.00457395      -0.56016816       0.90098570       0.00252320      -0.03681756       0.00965077      -0.00738501      -0.01369073      -0.00388457
C        0.82376177       2.13122988       1.19376585       0.03136677      -0.02733134      -0.02454243      -0.00313751      -0.00465958      -0.00024040
N        0.56652859       2.69746424       2.18986076      -0.04317133       0.02252067       0.01969641       0.00430727       0.02168311      -0.01499582
N        0.71616777       2.08744606      -1.23411255      -0.02988997      -0.04326459      -0.01121708       0.00671103       0.00091578       0.00430127
O        0.26132995       3.22250120      -1.11994202       0.02888941       0.04596845      -0.02222376       0.03776750       0.01207704       0.01022632
O        0.85852610       1.47643429      -2.28708130      -0.02563513       0.01857789       0.02060281       0.00038458       0.00394467       0.00004178
12
Properties=species:S:1:pos:R:3:mp2_forces:R:3:forces:R:3 R1=H R2=H R3=CN R4=NO2 lg=Br nu=Cl rxn-id=84 mp2_energy=-92733.20104278612 energy=-92733.19695210151 free_energy=-92733.20104278612 pbc="F F F"
C        0.65557874      -0.04170938       0.01854506      -0.00066786      -0.04085457       0.00199618      -0.01126708      -0.00419568      -0.00153443
C        1.18086275       1.37627837       0.00354414      -0.00783687      -0.03866538       0.00749254      -0.01556930      -0.00772136      -0.00024395
H        2.27780611       1.26004371      -0.08042256       0.00879787      -0.01408053       0.01914502      -0.01745126      -0.05559049       0.01148481
Br      -1.29860030      -0.06379468       0.02994875       0.01599574       0.08544782       0.01040436      -0.02662998      -0.03230887       0.01022855
Cl       3.70184496      -0.60592263       0.11794899       0.01231517       0.05934613      -0.00415212       0.04244267       0.05685793      -0.00744081
H        1.00956173      -0.56305703      -0.86387018       0.00731296      -0.03084699      -0.02685270      -0.02258414      -0.00844154      -0.00476452
H        1.02069591      -0.54693711       0.90669156       0.00252320      -0.03681756       0.00965077      -0.00975252      -0.01536676      -0.00611354
C        0.82040570       2.13590216       1.19357344       0.03136677      -0.02733134      -0.02454243      -0.00045459      -0.00508007      -0.00326276
N        0.55268769       2.68419001       2.19688647      -0.04317133       0.02252067       0.01969641       0.00821275       0.03883934      -0.02154296
N        0.70605082       2.09082164      -1.23736490      -0.02988997      -0.04326459      -0.01121708       0.00644199       0.00368488       0.00615659
O        0.23536028       3.21936582      -1.12462035       0.02888941       0.04596845      -0.02222376       0.04034738       0.01594278       0.01853880
O        0.85109304       1.47745549      -2.28839171      -0.02563513       0.01857789       0.02060281       0.00626407       0.01337984      -0.00150578
12
Properties=species:S:1:pos:R:3:mp2_forces:R:3:forces:R:3 R1=H R2=H R3=CN R4=NO2 lg=Br nu=Cl rxn-id=84 mp2_energy=-92733.20104278612 energy=-92733.1802681868 free_energy=-92733.20104278612 pbc="F F F"
C        0.67862796      -0.03815109       0.01908814      -0.00066786      -0.04085457       0.00199618      -0.03433466       0.00989256       0.00029631
C        1.18942646       1.38666396       0.00217349      -0.00783687      -0.03866538       0.00749254      -0.03150300      -0.00399617      -0.00199782
H        2.28657181       1.30907120      -0.08694772       0.00879787      -0.01408053       0.01914502      -0.03373204      -0.13666339       0.01453451
Br      -1.27826108      -0.05383098       0.02363401       0.01599574       0.08544782       0.01040436      -0.04299164      -0.05679291       0.00964434
Cl       3.65324395      -0.66494745       0.12199302       0.01231517       0.05934613      -0.00415212       0.12311801       0.04203725      -0.00321623
H        1.03523200      -0.56347875      -0.85973020       0.00731296      -0.03084699      -0.02685270      -0.02924252       0.01425656      -0.00075122
H        1.03672029      -0.54211933       0.91036950       0.00252320      -0.03681756       0.00965077      -0.00733540       0.00736775      -0.00893215
C        0.81582873       2.13744653       1.19456131       0.03136677      -0.02733134      -0.02454243       0.00514009       0.00749985      -0.00843433
N        0.54345280       2.67296470       2.20344962      -0.04317133       0.02252067       0.01969641       0.00199261       0.04899597      -0.02215666
N        0.69616912       2.09087587      -1.23929179      -0.02988997      -0.04326459      -0.01121708       0.00571579       0.01427638       0.00484295
O        0.21406865       3.21456902      -1.12916166       0.02888941       0.04596845      -0.02222376       0.03629476       0.02550975       0.02166100
O        0.84226671       1.47357268      -2.28766899      -0.02563513       0.01857789       0.02060281       0.00687801       0.02761639      -0.00549068
12
Properties=species:S:1:pos:R:3:mp2_forces:R:3:forces:R:3 R1=H R2=H R3=CN R4=NO2 lg=Br nu=Cl rxn-id=84 mp2_energy=-92733.20104278612 energy=-92733.14980685148 free_energy=-92733.20104278612 pbc="F F F"
C        0.70085569      -0.03699747       0.01911493      -0.00066786      -0.04085457       0.00199618      -0.08512844       0.02972188       0.00160383
C        1.20296399       1.39354432       0.00264603      -0.00783687      -0.03866538       0.00749254      -0.06556110      -0.00085767      -0.00424874
H        2.29992501       1.36737156      -0.09062304       0.00879787      -0.01408053       0.01914502      -0.06037195      -0.27358865       0.01370735
Br      -1.26205615      -0.02392277       0.01678461       0.01599574       0.08544782       0.01040436      -0.05246807      -0.10171926       0.01046474
Cl       3.60867764      -0.69349216       0.12261029       0.01231517       0.05934613      -0.00415212       0.22823519       0.00820344       0.00372099
H        1.05011851      -0.56675018      -0.85997462       0.00731296      -0.03084699      -0.02685270      -0.02402710       0.04543831       0.01800538
H        1.04104641      -0.54788791       0.91305641       0.00252320      -0.03681756       0.00965077       0.01462803       0.05075390      -0.01954689
C        0.81307906       2.13292916       1.19752489       0.03136677      -0.02733134      -0.02454243       0.00752936       0.03773210      -0.01601024
N        0.53688067       2.65455500       2.21257512      -0.04317133       0.02252067       0.01969641      -0.00625313       0.06024329      -0.01800981
N        0.68951125       2.08300090      -1.24063623      -0.02988997      -0.04326459      -0.01121708       0.00457293       0.03887077       0.00194340
O        0.19924291       3.20319785      -1.13647140       0.02888941       0.04596845      -0.02222376       0.02973477       0.04929377       0.01931701
O        0.83310245       1.45708804      -2.28413826      -0.02563513       0.01857789       0.02060281       0.00910951       0.05590812      -0.01094703
12
Properties=species:S:1:pos:R:3:mp2_forces:R:3:forces:R:3 R1=H R2=H R3=CN R4=NO2 lg=Br nu=Cl rxn-id=84 mp2_energy=-92733.20104278612 energy=-92733.08904296104 free_energy=-92733.20104278612 pbc="F F F"
C        0.72633274      -0.04029277       0.01890166      -0.00066786      -0.04085457       0.00199618      -0.23601186       0.05841605       0.00460308
C        1.22130706       1.39678139       0.00228043      -0.00783687      -0.03866538       0.00749254      -0.12335157       0.00204198      -0.00323365
H        2.31607480       1.43252198      -0.09593747       0.00879787      -0.01408053       0.01914502      -0.09274382      -0.44745299       0.01867912
Br      -1.24990138       0.00618358       0.01465342       0.01599574       0.08544782       0.01040436      -0.02332478      -0.13097472       0.00282718
Cl       3.54979938      -0.69383138       0.12085625       0.01231517       0.05934613      -0.00415212       0.41122192      -0.05911263       0.01465990
H        1.05592304      -0.57714046      -0.86384245       0.00731296      -0.03084699      -0.02685270      -0.00137486       0.08781417       0.07316560
H        1.03667384      -0.55794477       0.91956445       0.00252320      -0.03681756       0.00965077       0.06230980       0.09538411      -0.06737819
C        0.81387357       2.12266341       1.19971016       0.03136677      -0.02733134      -0.02454243       0.00442102       0.08054045      -0.01910051
N        0.53337480       2.63345937       2.21893460      -0.04317133       0.02252067       0.01969641      -0.01425745       0.06965501      -0.00157979
N        0.68793451       2.07154809      -1.24115603      -0.02988997      -0.04326459      -0.01121708      -0.00092497       0.07637937      -0.00496325
O        0.19115463       3.18859044      -1.14012868       0.02888941       0.04596845      -0.02222376       0.01097298       0.08452493      -0.00505554
O        0.83080044       1.44009749      -2.28136761      -0.02563513       0.01857789       0.02060281       0.00306361       0.08278429      -0.01262395
12
Properties=species:S:1:pos:R:3:mp2_forces:R:3:forces:R:3 R1=H R2=H R3=CN R4=NO2 lg=Br nu=Cl rxn-id=84 mp2_energy=-92733.20104278612 energy=-92732.97313846528 free_energy=-92733.20104278612 pbc="F F F"
C        0.76818900      -0.05128045       0.01778288      -0.00066786      -0.04085457       0.00199618      -0.71955754       0.12034693       0.01447373
C        1.24092512       1.39726600       0.00292815      -0.00783687      -0.03866538       0.00749254      -0.19678544      -0.02019658      -0.00424280
H        2.33003256       1.50169730      -0.10006436       0.00879787      -0.01408053       0.01914502      -0.10709828      -0.58686936       0.03013320
Br      -1.24702781       0.02495908       0.01461712       0.01599574       0.08544782       0.01040436       0.17268079      -0.13347450      -0.01033337
Cl       3.48184552      -0.67923232       0.11808340       0.01231517       0.05934613      -0.00415212       0.65635695      -0.14612641       0.02830887
H        1.05430107      -0.59466036      -0.87620814       0.00731296      -0.03084699      -0.02685270       0.06652706       0.13453728       0.17096904
H        1.02492203      -0.57587196       0.93126248       0.00252320      -0.03681756       0.00965077       0.15347255       0.14298187      -0.17147301
C        0.81265201       2.10867966       1.20208182       0.03136677      -0.02733134      -0.02454243       0.03063504       0.12995108      -0.02504989
N        0.53629201       2.62595931       2.21907888      -0.04317133       0.02252067       0.01969641      -0.03459035       0.05349703       0.01742884
N        0.68812124       2.06015580      -1.23967683      -0.02988997      -0.04326459      -0.01121708       0.01012593       0.11166317      -0.01008041
O        0.19182387       3.17688545      -1.13818082       0.02888941       0.04596845      -0.02222376      -0.01742211       0.10586620      -0.03335419
O        0.83127080       1.42807886      -2.27923585      -0.02563513       0.01857789       0.02060281      -0.01434460       0.08782329      -0.00678001
12
Properties=species:S:1:pos:R:3:mp2_forces:R:3:forces:R:3 R1=H R2=H R3=CN R4=NO2 lg=Br nu=Cl rxn-id=84 mp2_energy=-92733.20104278612 energy=-92732.81162225963 free_energy=-92733.20104278612 pbc="F F F"
C        0.82764879      -0.05975908       0.01871925      -0.00066786      -0.04085457       0.00199618      -1.38080013       0.18233482      -0.02369601
C        1.25709288       1.39979492       0.00319015      -0.00783687      -0.03866538       0.00749254      -0.21613850      -0.04485514      -0.00383748
H        2.33984844       1.55034624      -0.10258291       0.00879787      -0.01408053       0.01914502      -0.09602840      -0.58459477       0.03097649
Br      -1.26230637       0.03743601       0.01487196       0.01599574       0.08544782       0.01040436       0.51754727      -0.12207460      -0.01297907
Cl       3.43057351      -0.67053426       0.11597832       0.01231517       0.05934613      -0.00415212       0.78688766      -0.18664667       0.03544568
H        1.04943347      -0.60449303      -0.89029137       0.00731296      -0.03084699      -0.02685270       0.15097827       0.11865820       0.22142893
H        1.01274814      -0.58693813       0.94499424       0.00252320      -0.03681756       0.00965077       0.24840240       0.12625854      -0.20505919
C        0.81056675       2.09702773       1.20391377       0.03136677      -0.02733134      -0.02454243       0.05454816       0.16688920      -0.01900887
N        0.53756594       2.62026750       2.21881649      -0.04317133       0.02252067       0.01969641      -0.04321970       0.03395477       0.02135649
N        0.68705950       2.05130205      -1.23946852      -0.02988997      -0.04326459      -0.01121708       0.03341549       0.12789363      -0.00356993
O        0.19218237       3.16810481      -1.13673105       0.02888941       0.04596845      -0.02222376      -0.03414031       0.10769700      -0.04449030
O        0.83093401       1.42008159      -2.27894161      -0.02563513       0.01857789       0.02060281      -0.02145221       0.07448502       0.00343326
12
Properties=species:S:1:pos:R:3:mp2_forces:R:3:forces:R:3 R1=H R2=H R3=CN R4=NO2 lg=Br nu=Cl rxn-id=84 mp2_energy=-92733.20104278612 energy=-92732.64119853456 free_energy=-92733.20104278612 pbc="F F F"
C        0.88812572      -0.06704378       0.01986663      -0.00066786      -0.04085457       0.00199618      -1.69400194       0.20549941      -0.05013018
C        1.26629395       1.40085532       0.00312635      -0.00783687      -0.03866538       0.00749254      -0.17814235      -0.03215108       0.00067203
H        2.34412333       1.57600164      -0.10402361       0.00879787      -0.01408053       0.01914502      -0.06765704      -0.49245787       0.02591010
Br      -1.28591353       0.04213274       0.01561477       0.01599574       0.08544782       0.01040436       0.67772187      -0.09317782      -0.01212709
Cl       3.39492395      -0.66074310       0.11435842       0.01231517       0.05934613      -0.00415212       0.77563534      -0.18448814       0.03539302
H        1.04297456      -0.61025769      -0.89987023       0.00731296      -0.03084699      -0.02685270       0.20285174       0.07255184       0.18448255
H        1.00209300      -0.59283966       0.95389350       0.00252320      -0.03681756       0.00965077       0.28915821       0.07527752      -0.15415773
C        0.80876668       2.08936337       1.20462320       0.03136677      -0.02733134      -0.02454243       0.05664909       0.15631995      -0.01504803
N        0.53949368       2.61910887       2.21711961      -0.04317133       0.02252067       0.01969641      -0.04148669       0.02288658       0.02417998
N        0.68596836       2.04564765      -1.23904136      -0.02988997      -0.04326459      -0.01121708       0.04286604       0.11796390       0.00060986
O        0.19441761       3.16335749      -1.13399483       0.02888941       0.04596845      -0.02222376      -0.03901852       0.09507474      -0.04683801
O        0.83208011       1.41705350      -2.27920372      -0.02563513       0.01857789       0.02060281      -0.02457575       0.05670096       0.00705349
12
Properties=species:S:1:pos:R:3:mp2_forces:R:3:forces:R:3 R1=H R2=H R3=CN R4=NO2 lg=Br nu=Cl rxn-id=84 mp2_energy=-92733.20104278612 energy=-92732.48743962166 free_energy=-92733.20104278612 pbc="F F F"
C        0.94718200      -0.07412011       0.02111921      -0.00066786      -0.04085457       0.00199618      -1.57176856       0.20613413      -0.05051808
C        1.27255806       1.40184701       0.00309540      -0.00783687      -0.03866538       0.00749254      -0.12668082      -0.01853549       0.00114302
H        2.34637184       1.59325651      -0.10504763       0.00879787      -0.01408053       0.01914502      -0.03755609      -0.36397706       0.01825717
Br      -1.30944413       0.04535633       0.01608902       0.01599574       0.08544782       0.01040436       0.62167643      -0.06266573      -0.00878255
Cl       3.36746142      -0.65392358       0.11311984       0.01231517       0.05934613      -0.00415212       0.65001992      -0.15210759       0.03003264
H        1.03590106      -0.61290909      -0.90593583       0.00731296      -0.03084699      -0.02685270       0.20261168       0.02147976       0.10717800
H        0.99207158      -0.59570514       0.95936918       0.00252320      -0.03681756       0.00965077       0.26492287       0.02498648      -0.07883003
C        0.80697404       2.08389919       1.20516823       0.03136677      -0.02733134      -0.02454243       0.04673026       0.12157727      -0.01320228
N        0.54080805       2.61829021       2.21602722      -0.04317133       0.02252067       0.01969641      -0.03401303       0.01667110       0.02245038
N        0.68453968       2.04151187      -1.23890525      -0.02988997      -0.04326459      -0.01121708       0.03857468       0.09242667       0.00255085
O        0.19602617       3.16007365      -1.13215349       0.02888941       0.04596845      -0.02222376      -0.03284109       0.07385225      -0.03820239
O        0.83289765       1.41505952      -2.27947718      -0.02563513       0.01857789       0.02060281      -0.02167625       0.04015820       0.00792328
12
Properties=species:S:1:pos:R:3:mp2_forces:R:3:forces:R:3 R1=H R2=H R3=CN R4=NO2 lg=Br nu=Cl rxn-id=84 mp2_energy=-92733.20104278612 energy=-92732.37162764264 free_energy=-92733.20104278612 pbc="F F F"
C        1.00507658      -0.08164541       0.02254115      -0.00066786      -0.04085457       0.00199618      -1.08568811       0.15792260      -0.03960218
C        1.27722693       1.40244208       0.00309577      -0.00783687      -0.03866538       0.00749254      -0.07285431      -0.00586344       0.00028744
H        2.34769039       1.60668472      -0.10587174       0.00879787      -0.01408053       0.01914502      -0.01635348      -0.22008326       0.00941537
Br      -1.33209461       0.04764220       0.01644683       0.01599574       0.08544782       0.01040436       0.42078448      -0.03431331      -0.00471798
Cl       3.34324533      -0.64804603       0.11202256       0.01231517       0.05934613      -0.00415212       0.43328652      -0.09899546       0.02049786
H        1.02837926      -0.61380825      -0.90956702       0.00731296      -0.03084699      -0.02685270       0.14476071      -0.00956744       0.03925105
H        0.98230310      -0.59685062       0.96240811       0.00252320      -0.03681756       0.00965077       0.18005631      -0.00673105      -0.01664023
C        0.80540359       2.07937737       1.20559212       0.03136677      -0.02733134      -0.02454243       0.02953364       0.07623496      -0.00927842
N        0.54188931       2.61769485       2.21509123      -0.04317133       0.02252067       0.01969641      -0.02319252       0.01094302       0.01571865
N        0.68317605       2.03811790      -1.23888678      -0.02988997      -0.04326459      -0.01121708       0.02503814       0.05869561       0.00270987
O        0.19743471       3.15743447      -1.13061870       0.02888941       0.04596845      -0.02222376      -0.02010354       0.04760588      -0.02384122
O        0.83361678       1.41359307      -2.27978482      -0.02563513       0.01857789       0.02060281      -0.01526783       0.02415189       0.00619979
12
Properties=species:S:1:pos:R:3:mp2_forces:R:3:forces:R:3 R1=H R2=H R3=CN R4=NO2 lg=Br nu=Cl rxn-id=84 mp2_energy=-92733.20104278612 energy=-92732.31011710531 free_energy=-92733.20104278612 pbc="F F F"
C        1.06263626      -0.08986345       0.02410057      -0.00066786      -0.04085457       0.00199618      -0.36717714       0.05762859      -0.01986210
C        1.28105278       1.40257937       0.00315462      -0.00783687      -0.03866538       0.00749254      -0.02360029      -0.00196778       0.00080518
H        2.34851418       1.61839264      -0.10660382       0.00879787      -0.01408053       0.01914502      -0.00422596      -0.07013535      -0.00006887
Br      -1.35399922       0.04941777       0.01673476       0.01599574       0.08544782       0.01040436       0.14530429      -0.01004840      -0.00107227
Cl       3.31996502      -0.64244992       0.11095345       0.01231517       0.05934613      -0.00415212       0.14573198      -0.03034820       0.00744486
H        1.02059938      -0.61348332      -0.91127057       0.00731296      -0.03084699      -0.02685270       0.04781350      -0.01000934       0.00981251
H        0.97268361      -0.59682170       0.96349807       0.00252320      -0.03681756       0.00965077       0.05808614      -0.01028598       0.00462648
C        0.80403236       2.07523536       1.20594265       0.03136677      -0.02733134      -0.02454243       0.01115778       0.02410112      -0.00474280
N        0.54286538       2.61719057       2.21418274      -0.04317133       0.02252067       0.01969641      -0.01093698       0.00467581       0.00526529
N        0.68193604       2.03504467      -1.23889563      -0.02988997      -0.04326459      -0.01121708       0.00899164       0.02037301       0.00212786
O        0.19876790       3.15504336      -1.12920668       0.02888941       0.04596845      -0.02222376      -0.00390996       0.01772256      -0.00662262
O        0.83429374       1.41235101      -2.28012145      -0.02563513       0.01857789       0.02060281      -0.00723499       0.00829397       0.00228648
12
Properties=species:S:1:pos:R:3:mp2_forces:R:3:forces:R:3 R1=H R2=H R3=CN R4=NO2 lg=Br nu=Cl rxn-id=84 mp2_energy=-92733.20104278612 energy=-92732.31223612632 free_energy=-92733.20104278612 pbc="F F F"
C        1.12046601      -0.09881848       0.02580943      -0.00066786      -0.04085457       0.00199618       0.41515812      -0.06095013       0.00341446
C        1.28443246       1.40201776       0.00334116      -0.00783687      -0.03866538       0.00749254       0.02368347      -0.00749186       0.00303787
H        2.34893373       1.62918760      -0.10729144       0.00879787      -0.01408053       0.01914502       0.00337125       0.07957137      -0.00965992
Br      -1.37518028       0.05065018       0.01695223       0.01599574       0.08544782       0.01040436      -0.14351442       0.00877589       0.00193879
Cl       3.29592619      -0.63679873       0.10981150       0.01231517       0.05934613      -0.00415212      -0.17657093       0.04504006      -0.00772736
H        1.01273581      -0.61172980      -0.91057904       0.00731296      -0.03084699      -0.02685270      -0.05832181       0.00943921       0.01118384
H        0.96336457      -0.59550641       0.96217900       0.00252320      -0.03681756       0.00965077      -0.06974922       0.00368501      -0.00558710
C        0.80289232       2.07111845       1.20623649       0.03136677      -0.02733134      -0.02454243      -0.00553484      -0.03209473      -0.00032148
N        0.54380753       2.61669303       2.21318539      -0.04317133       0.02252067       0.01969641       0.00189661      -0.00218785      -0.00762996
N        0.68085551       2.03199187      -1.23884798      -0.02988997      -0.04326459      -0.01121708      -0.00617374      -0.02092339       0.00221708
O        0.20012338       3.15264698      -1.12781814       0.02888941       0.04596845      -0.02222376       0.01403514      -0.01496232       0.01189592
O        0.83499021       1.41118391      -2.28050988      -0.02563513       0.01857789       0.02060281       0.00172037      -0.00790124      -0.00276215
12
Properties=species:S:1:pos:R:3:mp2_forces:R:3:forces:R:3 R1=H R2=H R3=CN R4=NO2 lg=Br nu=Cl rxn-id=84 mp2_energy=-92733.20104278612 energy=-92732.3741387358 free_energy=-92733.20104278612 pbc="F F F"
C        1.17625872      -0.10816343       0.02752595      -0.00066786      -0.04085457       0.00199618       1.06542408      -0.17543428       0.02417151
C        1.28795264       1.40078737       0.00363319      -0.00783687      -0.03866538       0.00749254       0.06688409      -0.02673191       0.00744079
H        2.34931466       1.64008352      -0.10794537       0.00879787      -0.01408053       0.01914502       0.00799510       0.21059296      -0.01746209
Br      -1.39587668       0.05170804       0.01716419       0.01599574       0.08544782       0.01040436      -0.38511647       0.02070412       0.00430666
Cl       3.27135127      -0.63112856       0.10862429       0.01231517       0.05934613      -0.00415212      -0.47243389       0.11175031      -0.02211887
H        1.00557520      -0.60900535      -0.90802240       0.00731296      -0.03084699      -0.02685270      -0.13879725       0.04918170       0.05500712
H        0.95491146      -0.59330993       0.95894580       0.00252320      -0.03681756       0.00965077      -0.16528102       0.03630208      -0.05802926
C        0.80192689       2.06681073       1.20647356       0.03136677      -0.02733134      -0.02454243      -0.01673235      -0.08466409       0.00311941
N        0.54477386       2.61609864       2.21207117      -0.04317133       0.02252067       0.01969641       0.01369992      -0.01029867      -0.02176286
N        0.67996412       2.02877225      -1.23868175      -0.02988997      -0.04326459      -0.01121708      -0.01559647      -0.06040112       0.00461658
O        0.20149726       3.15006199      -1.12638676       0.02888941       0.04596845      -0.02222376       0.03014554      -0.04724858       0.02868552
O        0.83569805       1.40992110      -2.28093314      -0.02563513       0.01857789       0.02060281       0.00980871      -0.02375252      -0.00797451
12
Properties=species:S:1:pos:R:3:mp2_forces:R:3:forces:R:3 R1=H R2=H R3=CN R4=NO2 lg=Br nu=Cl rxn-id=84 mp2_energy=-92733.20104278612 energy=-92732.48395567242 free_energy=-92733.20104278612 pbc="F F F"
C        1.23179328      -0.11803269       0.02925491      -0.00066786      -0.04085457       0.00199618       1.46709507      -0.25618345       0.03913153
C        1.29218693       1.39885987       0.00403316      -0.00783687      -0.03866538       0.00749254       0.11129637      -0.05551634       0.01218124
H        2.34982191       1.65209984      -0.10859333       0.00879787      -0.01408053       0.01914502       0.01457546       0.31955880      -0.02248168
Br      -1.41779759       0.05266430       0.01740525       0.01599574       0.08544782       0.01040436      -0.56510217       0.02672018       0.00656872