17
Properties=species:S:1:pos:R:3:mp2_forces:R:3:forces:R:3 R1=NO2 R2=NH2 R3=NH2 R4=NH2 lg=Cl nu=F rxn-id=1190 mp2_energy=-27436.08559027846 energy=-27436.085594503897 free_energy=-27436.085594503897 pbc="F F F"
C        0.40458579       0.01430316      -0.07336636       0.02790554      -0.02638610       0.03469520       0.02788931      -0.02636824       0.03470632
C        0.76220056       1.53272405      -0.20912621       0.04049064       0.07702555       0.00395136       0.04048601       0.07703276       0.00396123
H        1.66065663       1.53928401      -0.81835578       0.04772834       0.05974623      -0.03892870       0.04773638       0.05975316      -0.03893452
Cl      -1.27495576      -0.41258845      -0.63449528      -0.04831478      -0.02034167       0.02066457      -0.04830074      -0.02036018       0.02066392
F        3.03652555       0.30991100       1.02380642      -0.02918681      -0.02812545       0.07632212      -0.02917596      -0.02812759       0.07632447
N        1.27310549      -0.80046159      -1.11077044      -0.01899046       0.01293194      -0.02879685      -0.01902416       0.01283487      -0.02871078
O        1.65842952      -0.24590955      -2.13165700      -0.05572830      -0.02916891      -0.01286939      -0.05571083      -0.02912569      -0.01291945
O        1.47173098      -1.97586504      -0.82581996      -0.00745806      -0.04387558      -0.02875299      -0.00744440      -0.04383908      -0.02878028
N        0.59730134      -0.45499171       1.22205985       0.02313817       0.01851216      -0.02383811       0.02315170       0.01850148      -0.02385657
H        1.63151475      -0.24919628       1.37749723       0.04470204      -0.03900003       0.03701341       0.04468031      -0.03899748       0.03701215
H        0.43596140      -1.45532792       1.24212309       0.03301413       0.01063572      -0.04931925       0.03301338       0.01064741      -0.04931975
N        1.13806667       2.15800228       1.04244237       0.00229451       0.04612069       0.00595257       0.00229654       0.04611971       0.00595505
H        2.03567425       1.70084668       1.27007505      -0.04486520       0.00797082       0.05066805      -0.04487228       0.00797733       0.05066382
H        0.47858083       1.87605525       1.76155510      -0.01647480      -0.01610226      -0.02499928      -0.01647007      -0.01610655      -0.02500196
N       -0.27057356       2.27291248      -0.93149474       0.02882420      -0.00977232       0.02379772       0.02881856      -0.00976690       0.02380201
H        0.01527393       3.24096896      -0.81285493      -0.02735603      -0.02969606      -0.07430230      -0.02735332      -0.02970162      -0.07430814
H       -1.14842288       2.17995967      -0.42991397       0.00027688       0.00952529       0.02874185       0.00027958       0.00952662       0.02874246
17
Properties=species:S:1:pos:R:3:mp2_forces:R:3:forces:R:3 R1=NO2 R2=NH2 R3=NH2 R4=NH2 lg=Cl nu=F rxn-id=1190 mp2_energy=-27436.08559027846 energy=-27436.09369946682 free_energy=-27436.085594503897 pbc="F F F"
C        0.42366437       0.02002593      -0.08842802       0.02790554      -0.02638610       0.03469520      -0.00553050      -0.00412998      -0.00252926
C        0.77589532       1.54987426      -0.23320264       0.04049064       0.07702555       0.00395136      -0.00593797      -0.00426515      -0.00071304
H        1.64416415       1.57806495      -0.88771066       0.04772834       0.05974623      -0.03892870      -0.00796154      -0.00305920      -0.00388320
Cl      -1.24019286      -0.41026297      -0.70040669      -0.04831478      -0.02034167       0.02066457      -0.00840519      -0.00305814       0.00285309
F        3.01058600       0.24355690       1.02829079      -0.02918681      -0.02812545       0.07632212       0.00894734       0.01089890       0.06400653
N        1.31294322      -0.80997784      -1.08918166      -0.01899046       0.01293194      -0.02879685      -0.00885166      -0.00151915      -0.01141020
O        1.68605065      -0.27506241      -2.12456903      -0.05572830      -0.02916891      -0.01286939      -0.01171331       0.00150871      -0.01124200
O        1.52501481      -1.97641180      -0.77954400      -0.00745806      -0.04387558      -0.02875299      -0.00280730      -0.00132883      -0.01338195
N        0.56450565      -0.43805032       1.21863516       0.02313817       0.01851216      -0.02383811       0.00645989      -0.00556977      -0.00655065
H        1.60422144      -0.28013993       1.39513025       0.04470204      -0.03900003       0.03701341       0.00639536       0.01483320      -0.00067148
H        0.35907142      -1.43034505       1.23842562       0.03301413       0.01063572      -0.04931925       0.02682073      -0.01042371      -0.00861909
N        1.18690709       2.17226836       1.00917584       0.00229451       0.04612069       0.00595257      -0.00391999      -0.00544500      -0.00160489
H        2.06579149       1.68654789       1.24692551      -0.04486520       0.00797082       0.05066805      -0.00457253      -0.00708677       0.00278353
H        0.51568610       1.92059020       1.72892336      -0.01647480      -0.01610226      -0.02499928      -0.00505719      -0.00289701      -0.00174913
N       -0.30791357       2.28118462      -0.88846566       0.02882420      -0.00977232       0.02379772      -0.00718830      -0.00604300       0.00016289
H       -0.05889834       3.25697270      -0.75504653      -0.02735603      -0.02969606      -0.07430230       0.01792772      -0.00439785      -0.04280383
H       -1.16184146       2.14179152      -0.35724720       0.00027688       0.00952529       0.02874185       0.00539446       0.03198277       0.03535269
17
Properties=species:S:1:pos:R:3:mp2_forces:R:3:forces:R:3 R1=NO2 R2=NH2 R3=NH2 R4=NH2 lg=Cl nu=F rxn-id=1190 mp2_energy=-27436.08559027846 energy=-27436.059627695784 free_energy=-27436.085594503897 pbc="F F F"
C        0.43712583       0.02976061      -0.08725243       0.02790554      -0.02638610       0.03469520      -0.02468301      -0.00626287      -0.00904505
C        0.78670944       1.56090103      -0.23587921       0.04049064       0.07702555       0.00395136      -0.01978905      -0.00893875      -0.00534273
H        1.65003269       1.59156868      -0.89544386       0.04772834       0.05974623      -0.03892870      -0.02715097      -0.01301479      -0.01630079
Cl      -1.21236046      -0.40825411      -0.72708593      -0.04831478      -0.02034167       0.02066457      -0.02076283      -0.00606457      -0.01189025
F        2.98431598       0.20781295       0.88258006      -0.02918681      -0.02812545       0.07632212       0.02557247       0.00782025       0.12195787
N        1.34499091      -0.80708882      -1.05721662      -0.01899046       0.01293194      -0.02879685      -0.01321998      -0.00314518      -0.01059132
O        1.73012843      -0.28199443      -2.09249287      -0.05572830      -0.02916891      -0.01286939       0.00114376      -0.00049221      -0.00464581
O        1.54308119      -1.97247349      -0.73807043      -0.00745806      -0.04387558      -0.02875299      -0.00134893       0.00012080      -0.00408837
N        0.53898086      -0.42153132       1.23193452       0.02313817       0.01851216      -0.02383811       0.00234197      -0.00001103      -0.01464911
H        1.57808304      -0.31524691       1.40050028       0.04470204      -0.03900003       0.03701341       0.00956522       0.05641095      -0.02054946
H        0.28343696      -1.40185429       1.25763617       0.03301413       0.01063572      -0.04931925       0.06617536      -0.01972776      -0.01415132
N        1.20621364       2.18396983       1.00485393       0.00229451       0.04612069       0.00595257      -0.00056377      -0.02108688      -0.00744187
H        2.08464393       1.69604463       1.22866787      -0.04486520       0.00797082       0.05066805      -0.00512657      -0.03802379      -0.01129075
H        0.53975104       1.93116581       1.72861164      -0.01647480      -0.01610226      -0.02499928       0.00029740      -0.01182080      -0.00319535
N       -0.30549640       2.29494050      -0.87630049       0.02882420      -0.00977232       0.02379772      -0.01791260       0.00006841       0.00277315
H       -0.10786897       3.26697068      -0.65856552      -0.02735603      -0.02969606      -0.07430230       0.03256912       0.00465881      -0.05028092
H       -1.17611264       2.07593564      -0.40477266       0.00027688       0.00952529       0.02874185      -0.00710758       0.05950942       0.05873206
17
Properties=species:S:1:pos:R:3:mp2_forces:R:3:forces:R:3 R1=NO2 R2=NH2 R3=NH2 R4=NH2 lg=Cl nu=F rxn-id=1190 mp2_energy=-27436.08559027846 energy=-27435.998707524872 free_energy=-27436.085594503897 pbc="F F F"
C        0.46401961       0.03650378      -0.07888302       0.02790554      -0.02638610       0.03469520      -0.07799967      -0.00998000      -0.01916523
C        0.80646672       1.57085141      -0.23132285       0.04049064       0.07702555       0.00395136      -0.04699193      -0.02076957      -0.00766089
H        1.67415005       1.60795329      -0.88360225       0.04772834       0.05974623      -0.03892870      -0.05328064      -0.05201661      -0.01879884
Cl      -1.18672397      -0.40372938      -0.72080396      -0.04831478      -0.02034167       0.02066457      -0.04420615      -0.00160223      -0.03230431
F        2.95531681       0.19594674       0.75069814      -0.02918681      -0.02812545       0.07632212       0.07332997       0.00072665       0.19871324
N        1.36377437      -0.80327667      -1.04355231      -0.01899046       0.01293194      -0.02879685      -0.02531804      -0.00014956      -0.00237776
O        1.73570613      -0.28128171      -2.08454724      -0.05572830      -0.02916891      -0.01286939       0.02553822       0.00539334       0.01738843
O        1.54905717      -1.97177912      -0.73037526      -0.00745806      -0.04387558      -0.02875299       0.00536133       0.01024695       0.02058339
N        0.53265079      -0.42058730       1.24734291       0.02313817       0.01851216      -0.02383811      -0.00491436       0.01216568      -0.02702963
H        1.56335468      -0.37716032       1.42481099       0.04470204      -0.03900003       0.03701341       0.03082964       0.14225236      -0.09294739
H        0.20672322      -1.37923624       1.27271593       0.03301413       0.01063572      -0.04931925       0.12741667      -0.04131683      -0.00379184
N        1.21048109       2.20590929       1.01032256       0.00229451       0.04612069       0.00595257       0.00036898      -0.05153541      -0.01046905
H        2.09291529       1.73312862       1.23610920      -0.04486520       0.00797082       0.05066805      -0.01036565      -0.10068968      -0.03774729
H        0.54395451       1.94514570       1.73100370      -0.01647480      -0.01610226      -0.02499928       0.00588051      -0.02951084       0.00334352
N       -0.29156068       2.29423707      -0.87519736       0.02882420      -0.00977232       0.02379772      -0.02717691       0.01594715      -0.00004765
H       -0.14430249       3.26216623      -0.60776886      -0.02735603      -0.02969606      -0.07430230       0.05162786       0.02060201      -0.04779701
H       -1.17032779       2.01583560      -0.45524587       0.00027688       0.00952529       0.02874185      -0.03009983       0.10023661       0.06010833
17
Properties=species:S:1:pos:R:3:mp2_forces:R:3:forces:R:3 R1=NO2 R2=NH2 R3=NH2 R4=NH2 lg=Cl nu=F rxn-id=1190 mp2_energy=-27436.08559027846 energy=-27435.867826203477 free_energy=-27436.085594503897 pbc="F F F"
C        0.51464778       0.04289738      -0.06759536       0.02790554      -0.02638610       0.03469520      -0.23375920      -0.02844865      -0.04974089
C        0.83649958       1.58432639      -0.22701997       0.04049064       0.07702555       0.00395136      -0.09234207      -0.04823231      -0.00273619
H        1.70665539       1.64274148      -0.87419034       0.04772834       0.05974623      -0.03892870      -0.08125123      -0.14283103       0.00390104
Cl      -1.15656960      -0.40309709      -0.70391588      -0.04831478      -0.02034167       0.02066457      -0.00852016       0.04690889      -0.04408986
F        2.90706049       0.19569270       0.62314155      -0.02918681      -0.02812545       0.07632212       0.20789179      -0.01044185       0.25451583
N        1.38198171      -0.80354365      -1.04112726      -0.01899046       0.01293194      -0.02879685      -0.03333644       0.01413760       0.02509205
O        1.72224892      -0.28595165      -2.09478975      -0.05572830      -0.02916891      -0.01286939       0.06514313       0.02728577       0.06100061
O        1.54704163      -1.97860008      -0.74170572      -0.00745806      -0.04387558      -0.02875299       0.03245198       0.03378445       0.06218244
N        0.53378864      -0.42834985       1.26399753       0.02313817       0.01851216      -0.02383811      -0.03910787       0.02108973      -0.04337656
H        1.54107037      -0.46950574       1.48550011       0.04470204      -0.03900003       0.03701341       0.06595186       0.25751952      -0.24130314
H        0.12189423      -1.35235046       1.27369041       0.03301413       0.01063572      -0.04931925       0.16582791      -0.08869204       0.05228789
N        1.21153006       2.23937319       1.01580988       0.00229451       0.04612069       0.00595257      -0.00624053      -0.09211649      -0.01309057
H        2.10110091       1.79826556       1.25845286      -0.04486520       0.00797082       0.05066805      -0.01503287      -0.17553039      -0.08067865
H        0.54207438       1.96437367       1.72815232      -0.01647480      -0.01610226      -0.02499928       0.01120605      -0.04772331       0.02113470
N       -0.27669533       2.28293829      -0.87294192       0.02882420      -0.00977232       0.02379772      -0.03874496       0.03892514      -0.01090754
H       -0.17754410       3.24864046      -0.57898059      -0.02735603      -0.02969606      -0.07430230       0.06149424       0.04089580      -0.04097053
H       -1.15112957       1.95277640      -0.48477344       0.00027688       0.00952529       0.02874185      -0.06163163       0.15346918       0.04677937
17
Properties=species:S:1:pos:R:3:mp2_forces:R:3:forces:R:3 R1=NO2 R2=NH2 R3=NH2 R4=NH2 lg=Cl nu=F rxn-id=1190 mp2_energy=-27436.08559027846 energy=-27435.60013306751 free_energy=-27436.085594503897 pbc="F F F"
C        0.60933273       0.05428975      -0.04789729       0.02790554      -0.02638610       0.03469520      -0.77783744      -0.11729112      -0.19197774
C        0.87350622       1.60374401      -0.22610102       0.04049064       0.07702555       0.00395136      -0.12677651      -0.09251918       0.00847739
H        1.73828979       1.70087153      -0.87710885       0.04772834       0.05974623      -0.03892870      -0.08449443      -0.23448962       0.04394652
Cl      -1.15216859      -0.42251297      -0.68812666      -0.04831478      -0.02034167       0.02066457       0.31226868       0.19059385       0.04087281
F        2.82231478       0.19938119       0.52019828      -0.02918681      -0.02812545       0.07632212       0.49885926      -0.01542487       0.26605093
N        1.39673256      -0.80932700      -1.05067235      -0.01899046       0.01293194      -0.02879685      -0.00400595       0.04522316       0.07267893
O        1.69769036      -0.29675379      -2.11895542      -0.05572830      -0.02916891      -0.01286939       0.09282626       0.04503694       0.09696034
O        1.53538449      -1.99192000      -0.76627628      -0.00745806      -0.04387558      -0.02875299       0.06664836       0.05498547       0.08567974
N        0.54862653      -0.43686048       1.28127647       0.02313817       0.01851216      -0.02383811      -0.12030283       0.01365439      -0.05887845
H        1.51321826      -0.57467547       1.58327768       0.04470204      -0.03900003       0.03701341       0.09380027       0.33140844      -0.40954378
H        0.05276778      -1.31597742       1.25231657       0.03301413       0.01063572      -0.04931925       0.13599166      -0.15722406       0.16186300
N        1.21476178       2.27678177       1.02046233       0.00229451       0.04612069       0.00595257      -0.01833910      -0.12257893      -0.02377065
H        2.10788606       1.86917965       1.29005808      -0.04486520       0.00797082       0.05066805      -0.00404521      -0.18469720      -0.10708386
H        0.53857205       1.98421351       1.71941361      -0.01647480      -0.01610226      -0.02499928       0.01182386      -0.04964307       0.03107739
N       -0.26260893       2.26628075      -0.86739625       0.02882420      -0.00977232       0.02379772      -0.04506284       0.05952072      -0.03106079
H       -0.20201310       3.23198708      -0.56464069      -0.02735603      -0.02969606      -0.07430230       0.03843062       0.05081357      -0.02616619
H       -1.12663728       1.89192490      -0.49812376       0.00027688       0.00952529       0.02874185      -0.06978466       0.18263151       0.04087442
17
Properties=species:S:1:pos:R:3:mp2_forces:R:3:forces:R:3 R1=NO2 R2=NH2 R3=NH2 R4=NH2 lg=Cl nu=F rxn-id=1190 mp2_energy=-27436.08559027846 energy=-27435.31950943481 free_energy=-27436.085594503897 pbc="F F F"
C        0.72830728       0.07215930      -0.01870356       0.02790554      -0.02638610       0.03469520      -0.88784703      -0.12354142      -0.23188424
C        0.89270780       1.61783454      -0.22744058       0.04049064       0.07702555       0.00395136      -0.06121876      -0.06479165       0.00978219
H        1.75068175       1.73684671      -0.88429555       0.04772834       0.05974623      -0.03892870      -0.03774440      -0.14403403       0.03455622
Cl      -1.19958587      -0.45193876      -0.69514826      -0.04831478      -0.02034167       0.02066457       0.37316336       0.16141866       0.08495633
F        2.74588293       0.20177624       0.47960067      -0.02918681      -0.02812545       0.07632212       0.45337421       0.00245053       0.16530967
N        1.39780374      -0.81623166      -1.06169265      -0.01899046       0.01293194      -0.02879685       0.04883247       0.04168924       0.06482686
O        1.68418312      -0.30369544      -2.13358105      -0.05572830      -0.02916891      -0.01286939       0.05654982       0.02663414       0.05798299
O        1.52569848      -2.00033056      -0.77915205      -0.00745806      -0.04387558      -0.02875299       0.04443607       0.03609732       0.04751418
N        0.56668127      -0.43895052       1.29014994       0.02313817       0.01851216      -0.02383811      -0.09107428      -0.00396622      -0.03161450
H        1.49840523      -0.62569003       1.64597972       0.04470204      -0.03900003       0.03701341       0.06968101       0.19596147      -0.26171962
H        0.03130343      -1.29174498       1.22740369       0.03301413       0.01063572      -0.04931925       0.06153518      -0.11254829       0.13091521
N        1.21780471       2.29554081       1.02390259       0.00229451       0.04612069       0.00595257      -0.00819808      -0.07714767      -0.01946369
H        2.10877981       1.89735422       1.30601135      -0.04486520       0.00797082       0.05066805       0.00887552      -0.09684653      -0.06258247
H        0.53716641       1.99195107       1.71467655      -0.01647480      -0.01610226      -0.02499928       0.00915849      -0.02243800       0.01560401
N       -0.25630921       2.25686636      -0.86221668       0.02882420      -0.00977232       0.02379772      -0.02153116       0.04373609      -0.02297651
H       -0.20758979       3.22424842      -0.56149764      -0.02735603      -0.02969606      -0.07430230       0.01056196       0.03210665      -0.01247264
H       -1.11626559       1.86463129      -0.50229204       0.00027688       0.00952529       0.02874185      -0.02855436       0.10521973       0.03126603
17
Properties=species:S:1:pos:R:3:mp2_forces:R:3:forces:R:3 R1=NO2 R2=NH2 R3=NH2 R4=NH2 lg=Cl nu=F rxn-id=1190 mp2_energy=-27436.08559027846 energy=-27435.21928774925 free_energy=-27436.085594503897 pbc="F F F"
C        0.83413279       0.08684429       0.00883527       0.02790554      -0.02638610       0.03469520       0.01379038       0.00154559       0.00307354
C        0.89987179       1.62550875      -0.22863988       0.04049064       0.07702555       0.00395136      -0.00037174       0.00037062      -0.00034414
H        1.75477608       1.75407575      -0.88878039       0.04772834       0.05974623      -0.03892870      -0.00303218       0.00229051      -0.00359567
Cl      -1.24378500      -0.47136225      -0.70588666      -0.04831478      -0.02034167       0.02066457      -0.00334109      -0.00399979      -0.00676332
F        2.69170782       0.20153039       0.46006802      -0.02918681      -0.02812545       0.07632212      -0.00773581       0.00035776      -0.00092043
N        1.39230782      -0.82119870      -1.06935368      -0.01899046       0.01293194      -0.02879685       0.00174020      -0.00054882      -0.00039656
O        1.67794974      -0.30690666      -2.14035909      -0.05572830      -0.02916891      -0.01286939       0.00346459      -0.00065989       0.00033924
O        1.52078214      -2.00462951      -0.78465336      -0.00745806      -0.04387558      -0.02875299       0.00252859      -0.00046593       0.00070819
N        0.57729336      -0.43848238       1.29381972       0.02313817       0.01851216      -0.02383811      -0.00074318       0.00017783      -0.00050556
H        1.48976021      -0.64932480       1.67717217       0.04470204      -0.03900003       0.03701341      -0.00400871      -0.00511566       0.00356075
H        0.02346540      -1.27816405       1.21166339       0.03301413       0.01063572      -0.04931925      -0.00495071       0.00311376      -0.00318804
N        1.21896890       2.30476486       1.02606660       0.00229451       0.04612069       0.00595257       0.00170627       0.00132454      -0.00100966
H        2.10793873       1.90886602       1.31314592      -0.04486520       0.00797082       0.05066805       0.00176606       0.00123350      -0.00182587
H        0.53638716       1.99472518       1.71281215      -0.01647480      -0.01610226      -0.02499928       0.00255269       0.00112232      -0.00020369
N       -0.25418867       2.25138825      -0.85914503       0.02882420      -0.00977232       0.02379772      -0.00347618      -0.00297518       0.00318530
H       -0.20862200       3.22043517      -0.56069146      -0.02735603      -0.02969606      -0.07430230       0.00184895      -0.00039451      -0.00564858
H       -1.11309078       1.85255669      -0.50436924       0.00027688       0.00952529       0.02874185      -0.00173811       0.00262337       0.01353448
17
Properties=species:S:1:pos:R:3:mp2_forces:R:3:forces:R:3 R1=NO2 R2=NH2 R3=NH2 R4=NH2 lg=Cl nu=F rxn-id=1190 mp2_energy=-27436.08559027846 energy=-27435.349562591233 free_energy=-27436.085594503897 pbc="F F F"
C        0.94615507       0.10081782       0.03905140       0.02790554      -0.02638610       0.03469520       1.30196521       0.16221929       0.35085358
C        0.90469684       1.63048842      -0.22919995       0.04049064       0.07702555       0.00395136       0.05494671       0.05742274      -0.00672970
H        1.75721755       1.76701000      -0.89302707       0.04772834       0.05974623      -0.03892870       0.02489646       0.15061200      -0.05239087
Cl      -1.29032750      -0.48928122      -0.71923555      -0.04831478      -0.02034167       0.02066457      -0.53854779      -0.21001971      -0.16048073
F        2.64187708       0.20117272       0.44388749      -0.02918681      -0.02812545       0.07632212      -0.58027971      -0.00377670      -0.18668151
N        1.38319678      -0.82490390      -1.07554358      -0.01899046       0.01293194      -0.02879685      -0.10327713      -0.04269677      -0.07184111
O        1.67190433      -0.30914751      -2.14528513      -0.05572830      -0.02916891      -0.01286939      -0.06611706      -0.02649186      -0.05596976
O        1.51551285      -2.00754978      -0.78844871      -0.00745806      -0.04387558      -0.02875299      -0.05805079      -0.03422192      -0.04277447
N        0.58635831      -0.43519430       1.29412389       0.02313817       0.01851216      -0.02383811       0.10342219       0.03816796       0.00281713
H        1.48049375      -0.66825401       1.70273733       0.04470204      -0.03900003       0.03701341      -0.11057343      -0.22247231       0.29702159
H        0.01942395      -1.26575850       1.19599958       0.03301413       0.01063572      -0.04931925      -0.05114100       0.14574322      -0.18332030
N        1.21967409       2.31167289       1.02829513       0.00229451       0.04612069       0.00595257       0.00980143       0.08063051       0.02462070
H        2.10744094       1.91928709       1.31998723      -0.04486520       0.00797082       0.05066805      -0.00390326       0.12104523       0.07680445
H        0.53560429       1.99570171       1.71138284      -0.01647480      -0.01610226      -0.02499928      -0.00642338       0.01224772      -0.01659400
N       -0.25301737       2.24513352      -0.85651880       0.02882420      -0.00977232       0.02379772       0.00997081      -0.07492664       0.03336690
H       -0.20879100       3.21616671      -0.56062904      -0.02735603      -0.02969606      -0.07430230      -0.00002732      -0.04950742      -0.00493575
H       -1.11176446       1.84326534      -0.50587265       0.00027688       0.00952529       0.02874185       0.01333806      -0.10397534      -0.00376614
17
Properties=species:S:1:pos:R:3:mp2_forces:R:3:forces:R:3 R1=NO2 R2=NH2 R3=NH2 R4=NH2 lg=Cl nu=F rxn-id=1190 mp2_energy=-27436.08559027846 energy=-27435.64387989683 free_energy=-27436.085594503897 pbc="F F F"
C        1.04747109       0.11237875       0.06607962       0.02790554      -0.02638610       0.03469520       1.71678363       0.19641613       0.45760765
C        0.91141685       1.63369489      -0.22907953       0.04049064       0.07702555       0.00395136       0.11257457       0.05395392       0.00273670
H        1.76033050       1.78198538      -0.89767222       0.04772834       0.05974623      -0.03892870       0.04952402       0.25444363      -0.08201281
Cl      -1.33987669      -0.50840572      -0.73281132      -0.04831478      -0.02034167       0.02066457      -0.83799114      -0.32606925      -0.23582136
F        2.60381307       0.20211571       0.43024488      -0.02918681      -0.02812545       0.07632212      -0.64519809       0.01666511      -0.22980442
N        1.37458866      -0.82674537      -1.07960134      -0.01899046       0.01293194      -0.02879685      -0.14669344      -0.06052061      -0.04369809
O        1.66361961      -0.31112224      -2.14990115      -0.05572830      -0.02916891      -0.01286939      -0.13142056      -0.02412786      -0.09655141
O        1.50792567      -2.01007215      -0.79224163      -0.00745806      -0.04387558      -0.02875299      -0.12747169      -0.02420576      -0.06785418
N        0.59758406      -0.42981995       1.29200533       0.02313817       0.01851216      -0.02383811       0.18849986       0.09115974      -0.03663495
H        1.46939606      -0.68964974       1.73043562       0.04470204      -0.03900003       0.03701341      -0.19109272      -0.36552131       0.46960969
H        0.01618336      -1.25005879       1.17656257       0.03301413       0.01063572      -0.04931925      -0.05900175       0.26793188      -0.33131361
N        1.22065340       2.31840482       1.03061482       0.00229451       0.04612069       0.00595257       0.01837984       0.11450783       0.03766497
H        2.10805414       1.93275602       1.32921719      -0.04486520       0.00797082       0.05066805       0.01237662       0.22851826       0.15393151
H        0.53477721       1.99661468       1.70953197      -0.01647480      -0.01610226      -0.02499928      -0.01140044       0.01632670      -0.03138523
N       -0.25129200       2.23681423      -0.85374125       0.02882420      -0.00977232       0.02379772       0.02568763      -0.14324476       0.04981733
H       -0.20922751       3.21001066      -0.56083565      -0.02735603      -0.02969606      -0.07430230      -0.00541408      -0.10451761      -0.00908923
H       -1.10976198       1.83172581      -0.50710347       0.00027688       0.00952529       0.02874185       0.03185775      -0.19171603      -0.00720256
17
Properties=species:S:1:pos:R:3:mp2_forces:R:3:forces:R:3 R1=NO2 R2=NH2 R3=NH2 R4=NH2 lg=Cl nu=F rxn-id=1190 mp2_energy=-27436.08559027846 energy=-27436.08593364696 free_energy=-27436.085594503897 pbc="F F F"
C        1.16886175       0.12806617       0.09588438       0.02790554      -0.02638610       0.03469520       0.85129397       0.11010770       0.20972020
C        0.93504622       1.63892714      -0.22617660       0.04049064       0.07702555       0.00395136       0.16473530       0.03620972       0.01974093
H        1.77254274       1.82069532      -0.90398845       0.04772834       0.05974623      -0.03892870       0.08188205       0.27179243      -0.04716833
Cl      -1.44086869      -0.55130589      -0.75172566      -0.04831478      -0.02034167       0.02066457      -0.70747713      -0.30348061      -0.13873268
F        2.59490418       0.20477103       0.42085913      -0.02918681      -0.02812545       0.07632212      -0.06266866       0.01911480      -0.06414816
N        1.36747286      -0.82382710      -1.07946483      -0.01899046       0.01293194      -0.02879685      -0.04478184       0.03627212      -0.01587757
O        1.63783455      -0.31179024      -2.15848779      -0.05572830      -0.02916891      -0.01286939      -0.18022490      -0.01106373      -0.04586364