14
Properties=species:S:1:pos:R:3:mp2_forces:R:3:forces:R:3 R1=CN R2=NO2 R3=H R4=NH2 lg=F nu=Cl rxn-id=1386 mp2_energy=-26935.80253112882 energy=-26935.802533531172 free_energy=-26935.802533531172 pbc="F F F"
C        0.67565913       0.00534176      -0.02826439       0.02108604      -0.00265035       0.01978546       0.02109689      -0.00264259       0.01974801
C        0.97971585       1.48227445      -0.02074616      -0.03192040      -0.01530375       0.00096837      -0.03191165      -0.01529879       0.00097082
H        2.06525918       1.58249983      -0.07402134      -0.05398678      -0.03162788       0.02044458      -0.05399551      -0.03163238       0.02044417
F       -0.71703727      -0.14741510      -0.01331042       0.01788058       0.05106487      -0.06735385       0.01787685       0.05106002      -0.06735422
Cl       3.89225227      -0.06669344       0.19854443      -0.00347724       0.04752150      -0.00219915      -0.00347230       0.04752304      -0.00220083
H        0.62382844       1.87076817       0.93974539       0.00638374       0.00082702       0.00080629       0.00638473       0.00082485       0.00080608
C        1.16922977      -0.72183958      -1.19876833      -0.02869266      -0.00658885       0.01079450      -0.02866897      -0.00660211       0.01077520
N        1.34570160      -1.29860904      -2.20692949      -0.01691653       0.01124407       0.03615828      -0.01694476       0.01126070       0.03618942
N        1.06882475      -0.69988185       1.26036702       0.03369421      -0.00647067       0.01642444       0.03369438      -0.00644461       0.01644719
O        1.12961356      -0.01103370       2.27048327      -0.00366688      -0.04337067      -0.00821965      -0.00366452      -0.04334562      -0.00820113
O        1.11831197      -1.92029194       1.20452772       0.03234514      -0.04415002       0.01571303       0.03233422      -0.04420629       0.01569459
N        0.33688955       2.06853608      -1.19470171      -0.01221340       0.00491004      -0.01037308      -0.01221139       0.00490889      -0.01037105
H        0.61143632       3.03961769      -1.26125332       0.03658861      -0.01697704      -0.06493923       0.03658922      -0.01697789      -0.06493958
H       -0.66786793       2.03611329      -1.07776768       0.00289557       0.05157173       0.03199002       0.00289281       0.05157278       0.03199134
14
Properties=species:S:1:pos:R:3:mp2_forces:R:3:forces:R:3 R1=CN R2=NO2 R3=H R4=NH2 lg=F nu=Cl rxn-id=1386 mp2_energy=-26935.80253112882 energy=-26935.80963466878 free_energy=-26935.802533531172 pbc="F F F"
C        0.68182484       0.00951125      -0.01777461       0.02108604      -0.00265035       0.01978546      -0.00984050      -0.00738022      -0.00126499
C        0.96694224       1.48913109       0.00107363      -0.03192040      -0.01530375       0.00096837      -0.01074726      -0.00738070      -0.00088521
H        2.05030102       1.60665817      -0.01117437      -0.05398678      -0.03162788       0.02044458      -0.01012277      -0.01094641      -0.00372967
F       -0.71136370      -0.14869076      -0.01329864       0.01788058       0.05106487      -0.06735385      -0.00786378      -0.01279377       0.00112883
Cl       3.86224843      -0.07618162       0.14848953      -0.00347724       0.04752150      -0.00219915       0.01376525       0.03791862       0.00479472
H        0.56944289       1.87612775       0.94621265       0.00638374       0.00082702       0.00080629      -0.00561742      -0.00781540       0.00133162
C        1.17697016      -0.70609476      -1.19312785      -0.02869266      -0.00658885       0.01079450      -0.00623431      -0.00534138      -0.00061363
N        1.31678996      -1.28807670      -2.20393601      -0.01691653       0.01124407       0.03615828       0.01162672      -0.00723366       0.00238476
N        1.08177538      -0.70528672       1.26563495       0.03369421      -0.00647067       0.01642444      -0.00132557      -0.00507453      -0.00167842
O        1.17180683      -0.01871058       2.27464177      -0.00366688      -0.04337067      -0.00821965       0.00589048      -0.00358539      -0.00342778
O        1.11379860      -1.92691658       1.20874793       0.03234514      -0.04415002       0.01571303       0.00136237      -0.00526730      -0.00004454
N        0.36604945       2.06107465      -1.20270033      -0.01221340       0.00491004      -0.01037308      -0.01310286      -0.00390423       0.00262784
H        0.62714495       3.03539247      -1.27045898       0.03658861      -0.01697704      -0.06493923       0.04872332      -0.02069593      -0.03319291
H       -0.64191388       2.01144896      -1.13442467       0.00289557       0.05157173       0.03199002      -0.01651367       0.05950030       0.03256938
14
Properties=species:S:1:pos:R:3:mp2_forces:R:3:forces:R:3 R1=CN R2=NO2 R3=H R4=NH2 lg=F nu=Cl rxn-id=1386 mp2_energy=-26935.80253112882 energy=-26935.797514701204 free_energy=-26935.802533531172 pbc="F F F"
C        0.69057702       0.01569826      -0.01542952       0.02108604      -0.00265035       0.01978546      -0.01396243      -0.00918328      -0.00215353
C        0.97322148       1.49588266       0.00559515      -0.03192040      -0.01530375       0.00096837      -0.01367645      -0.00974155      -0.00249061
H        2.05577352       1.61919306       0.00660124      -0.05398678      -0.03162788       0.02044458      -0.01231331      -0.01806687      -0.00735407
F       -0.70431241      -0.14027510      -0.01334874       0.01788058       0.05106487      -0.06735385      -0.01156598      -0.01618031       0.00123579
Cl       3.84801471      -0.10702927       0.13338015      -0.00347724       0.04752150      -0.00219915       0.02043131       0.03962965       0.00574725
H        0.56066982       1.88168047       0.94503642       0.00638374       0.00082702       0.00080629      -0.00520141      -0.00895629       0.00078647
C        1.18240395      -0.70041292      -1.19184154      -0.02869266      -0.00658885       0.01079450      -0.00838385      -0.00702377      -0.00041701
N        1.30063864      -1.28073603      -2.20663657      -0.01691653       0.01124407       0.03615828       0.01996111      -0.00869100       0.00279014
N        1.08511806      -0.70079106       1.26788663       0.03369421      -0.00647067       0.01642444      -0.00213365      -0.00436497      -0.00168203
O        1.18018416      -0.01447170       2.27666149      -0.00366688      -0.04337067      -0.00821965       0.00832328      -0.00086187      -0.00517945
O        1.10636765      -1.92264125       1.21149712       0.03234514      -0.04415002       0.01571303       0.00168708      -0.00467080       0.00220268
N        0.38515093       2.06438234      -1.20664808      -0.01221340       0.00491004      -0.01037308      -0.01559191      -0.00333458       0.00238117
H        0.58794809       3.05444643      -1.23862935       0.03658861      -0.01697704      -0.06493923       0.05732442      -0.01695773      -0.03253243
H       -0.61993843       1.95446072      -1.17621942       0.00289557       0.05157173       0.03199002      -0.02489822       0.06840337       0.03666564
14
Properties=species:S:1:pos:R:3:mp2_forces:R:3:forces:R:3 R1=CN R2=NO2 R3=H R4=NH2 lg=F nu=Cl rxn-id=1386 mp2_energy=-26935.80253112882 energy=-26935.78335824867 free_energy=-26935.802533531172 pbc="F F F"
C        0.70425404       0.02342466      -0.01350680       0.02108604      -0.00265035       0.01978546      -0.02593332      -0.01247835      -0.00269250
C        0.98383927       1.50485954       0.00949002      -0.03192040      -0.01530375       0.00096837      -0.02056785      -0.01496458      -0.00511274
H        2.06468951       1.63911128       0.01846552      -0.05398678      -0.03162788       0.02044458      -0.01674195      -0.03847688      -0.01145197
F       -0.69294727      -0.12761965      -0.01602310       0.01788058       0.05106487      -0.06735385      -0.02221820      -0.02283302       0.00537453
Cl       3.82879648      -0.13534646       0.12550000      -0.00347724       0.04752150      -0.00219915       0.03571712       0.03810278       0.00473088
H        0.55984051       1.88857459       0.94497061       0.00638374       0.00082702       0.00080629      -0.00620033      -0.01010829      -0.00096803
C        1.19131853      -0.69440606      -1.19089322      -0.02869266      -0.00658885       0.01079450      -0.01632545      -0.00903380       0.00018919
N        1.28062561      -1.27629929      -2.20814571      -0.01691653       0.01124407       0.03615828       0.03787141      -0.00535722       0.00183531
N        1.08750253      -0.69845276       1.26915355       0.03369421      -0.00647067       0.01642444      -0.00316486      -0.00144576      -0.00104390
O        1.18052817      -0.01583927       2.28070158      -0.00366688      -0.04337067      -0.00821965       0.01492987       0.00708772      -0.00843401
O        1.09828408      -1.92024886       1.20938803       0.03234514      -0.04415002       0.01571303       0.00588749      -0.00192572       0.00790614
N        0.39932105       2.06616328      -1.20859003      -0.01221340       0.00491004      -0.01037308      -0.01697516       0.00062204       0.00149195
H        0.54400101       3.06691243      -1.21569110       0.03658861      -0.01697704      -0.06493923       0.06510411      -0.01056520      -0.02460677
H       -0.59823633       1.89855319      -1.20691436       0.00289557       0.05157173       0.03199002      -0.03138289       0.08137629       0.03278192
14
Properties=species:S:1:pos:R:3:mp2_forces:R:3:forces:R:3 R1=CN R2=NO2 R3=H R4=NH2 lg=F nu=Cl rxn-id=1386 mp2_energy=-26935.80253112882 energy=-26935.77393616382 free_energy=-26935.802533531172 pbc="F F F"
C        0.71687639       0.02896382      -0.01318656       0.02108604      -0.00265035       0.01978546      -0.04075366      -0.01556930      -0.00258386
C        0.99459779       1.51179329       0.00985611      -0.03192040      -0.01530375       0.00096837      -0.02949446      -0.02088295      -0.00685059
H        2.07358990       1.65798223       0.01511786      -0.05398678      -0.03162788       0.02044458      -0.02180984      -0.06725814      -0.01364705
F       -0.68242020      -0.11561880      -0.01939492       0.01788058       0.05106487      -0.06735385      -0.03497280      -0.03200333       0.00843489
Cl       3.81407041      -0.14754577       0.13104886      -0.00347724       0.04752150      -0.00219915       0.05333696       0.03404009       0.00246544
H        0.56997130       1.89356205       0.94603434       0.00638374       0.00082702       0.00080629      -0.00860390      -0.00905424      -0.00280644
C        1.19905991      -0.69142390      -1.19107450      -0.02869266      -0.00658885       0.01079450      -0.02393333      -0.00934481       0.00193703
N        1.26817530      -1.27785434      -2.20758055      -0.01691653       0.01124407       0.03615828       0.05520448       0.00076696       0.00038721
N        1.08741935      -0.69990108       1.26853989       0.03369421      -0.00647067       0.01642444      -0.00389714       0.00305146       0.00010752
O        1.16836967      -0.02313730       2.28510834      -0.00366688      -0.04337067      -0.00821965       0.02458894       0.01696350      -0.01135879
O        1.09529930      -1.92135566       1.20235616       0.03234514      -0.04415002       0.01571303       0.01248148       0.00237357       0.01419543
N        0.40008845       2.06438578      -1.20795991      -0.01221340       0.00491004      -0.01037308      -0.01677655       0.00604552       0.00097718
H        0.51942006       3.06835857      -1.21366369       0.03658861      -0.01697704      -0.06493923       0.06984217      -0.00293564      -0.01362521
H       -0.59270044       1.87117774      -1.20729645       0.00289557       0.05157173       0.03199002      -0.03521236       0.09380730       0.02236724
14
Properties=species:S:1:pos:R:3:mp2_forces:R:3:forces:R:3 R1=CN R2=NO2 R3=H R4=NH2 lg=F nu=Cl rxn-id=1386 mp2_energy=-26935.80253112882 energy=-26935.759191332272 free_energy=-26935.802533531172 pbc="F F F"
C        0.73111785       0.03476391      -0.01197443       0.02108604      -0.00265035       0.01978546      -0.06041685      -0.01739127      -0.00145801
C        1.00640723       1.51933573       0.01137987      -0.03192040      -0.01530375       0.00096837      -0.04249394      -0.02637784      -0.00680723
H        2.08261776       1.68205696       0.01758373      -0.05398678      -0.03162788       0.02044458      -0.02737617      -0.10945850      -0.01596658
F       -0.67092181      -0.10137835      -0.01838570       0.01788058       0.05106487      -0.06735385      -0.05046788      -0.04670092       0.00237795
Cl       3.79416368      -0.15963237       0.13164000      -0.00347724       0.04752150      -0.00219915       0.08152560       0.02706667       0.00181661
H        0.57542262       1.89677373       0.94652861       0.00638374       0.00082702       0.00080629      -0.01015849       0.00158673      -0.00305964
C        1.20467824      -0.68840127      -1.19179256      -0.02869266      -0.00658885       0.01079450      -0.02650423      -0.00563638       0.00726396
N        1.25188664      -1.27748454      -2.20838896      -0.01691653       0.01124407       0.03615828       0.06812446       0.00675513       0.00325913
N        1.08873088      -0.70161307       1.26829785       0.03369421      -0.00647067       0.01642444      -0.00599804       0.00853614       0.00148467
O        1.15576481      -0.03072752       2.28987580      -0.00366688      -0.04337067      -0.00821965       0.03871347       0.02641795      -0.01342482
O        1.09324144      -1.92269406       1.19588015       0.03234514      -0.04415002       0.01571303       0.02207124       0.00765451       0.01794782
N        0.40591998       2.06213068      -1.20851771      -0.01221340       0.00491004      -0.01037308      -0.01880338       0.01278848       0.00027899
H        0.49267421       3.06930938      -1.20952201       0.03658861      -0.01697704      -0.06493923       0.07542418       0.00770075      -0.00233020
H       -0.57988635       1.83694741      -1.21469966       0.00289557       0.05157173       0.03199002      -0.04363996       0.10705854       0.00861735
14
Properties=species:S:1:pos:R:3:mp2_forces:R:3:forces:R:3 R1=CN R2=NO2 R3=H R4=NH2 lg=F nu=Cl rxn-id=1386 mp2_energy=-26935.80253112882 energy=-26935.740174017243 free_energy=-26935.802533531172 pbc="F F F"
C        0.74550104       0.03950043      -0.01086432       0.02108604      -0.00265035       0.01978546      -0.08387249      -0.01678306       0.00147171
C        1.01641054       1.52604282       0.01438011      -0.03192040      -0.01530375       0.00096837      -0.05745602      -0.02999238      -0.00476489
H        2.08888005       1.70882720       0.02852143      -0.05398678      -0.03162788       0.02044458      -0.02954652      -0.15928187      -0.01796082
F       -0.65928785      -0.08973133      -0.01619069       0.01788058       0.05106487      -0.06735385      -0.06788092      -0.05805561      -0.00805037
Cl       3.77234552      -0.17224769       0.12424419      -0.00347724       0.04752150      -0.00219915       0.11520060       0.01822574       0.00221741
H        0.57217675       1.89563881       0.94647023       0.00638374       0.00082702       0.00080629      -0.01117615       0.02240499      -0.00207511
C        1.20961749      -0.68610298      -1.19304595      -0.02869266      -0.00658885       0.01079450      -0.02445384       0.00130103       0.01587429
N        1.23339773      -1.27547375      -2.21073732      -0.01691653       0.01124407       0.03615828       0.07875840       0.01105498       0.00896126
N        1.09142612      -0.70183205       1.26881997       0.03369421      -0.00647067       0.01642444      -0.00912488       0.01201126       0.00252313
O        1.15128246      -0.03390315       2.29289576      -0.00366688      -0.04337067      -0.00821965       0.05413066       0.03057735      -0.01289380
O        1.08655722      -1.92276626       1.19407238       0.03234514      -0.04415002       0.01571303       0.03518925       0.01052305       0.01817392
N        0.41690984       2.06093648      -1.20994854      -0.01221340       0.00491004      -0.01037308      -0.02290787       0.01985383       0.00086564
H        0.46629698       3.07052451      -1.19997684       0.03658861      -0.01697704      -0.06493923       0.07579471       0.01707102       0.00325516
H       -0.55969671       1.79997358      -1.23073542       0.00289557       0.05157173       0.03199002      -0.05265492       0.12108967      -0.00759755
14
Properties=species:S:1:pos:R:3:mp2_forces:R:3:forces:R:3 R1=CN R2=NO2 R3=H R4=NH2 lg=F nu=Cl rxn-id=1386 mp2_energy=-26935.80253112882 energy=-26935.677275672064 free_energy=-26935.802533531172 pbc="F F F"
C        0.78747828       0.04641494      -0.01374541       0.02108604      -0.00265035       0.01978546      -0.17610923      -0.01505683       0.01324629
C        1.04290737       1.53966088       0.01726580      -0.03192040      -0.01530375       0.00096837      -0.10702501      -0.04329877      -0.00077320
H        2.10199438       1.78470509       0.03648785      -0.05398678      -0.03162788       0.02044458      -0.03636954      -0.30941241      -0.02627946
F       -0.62482617      -0.06677443      -0.02039147       0.01788058       0.05106487      -0.06735385      -0.12953893      -0.08257816      -0.01947569
Cl       3.71571118      -0.17566723       0.12556223      -0.00347724       0.04752150      -0.00219915       0.24331872      -0.02197424      -0.00066699
H        0.57810135       1.88334882       0.94928404       0.00638374       0.00082702       0.00080629      -0.01899992       0.08474692      -0.00028218
C        1.22693170      -0.68696371      -1.20101442      -0.02869266      -0.00658885       0.01079450      -0.02412073       0.02020209       0.04466911
N        1.19233940      -1.28483075      -2.21471742      -0.01691653       0.01124407       0.03615828       0.12728301       0.03423663       0.03411151
N        1.09520789      -0.70722887       1.26702220       0.03369421      -0.00647067       0.01642444      -0.01822211       0.01981783       0.00366886
O        1.12713237      -0.04681742       2.29751749      -0.00366688      -0.04337067      -0.00821965       0.09916429       0.03644335      -0.01033589
O        1.06718136      -1.92755138       1.18661279       0.03234514      -0.04415002       0.01571303       0.08097268       0.01604819       0.01496473
N        0.42414463       2.04986990      -1.20810780      -0.01221340       0.00491004      -0.01037308      -0.03483139       0.04643271      -0.00308029
H        0.43861079       3.06002845      -1.20790126       0.03658861      -0.01697704      -0.06493923       0.07013676       0.04842180       0.01869082
H       -0.54109734       1.75119232      -1.21596964       0.00289557       0.05157173       0.03199002      -0.07565859       0.16597090      -0.06845762
14
Properties=species:S:1:pos:R:3:mp2_forces:R:3:forces:R:3 R1=CN R2=NO2 R3=H R4=NH2 lg=F nu=Cl rxn-id=1386 mp2_energy=-26935.80253112882 energy=-26935.590828080043 free_energy=-26935.802533531172 pbc="F F F"
C        0.82516062       0.05025490      -0.01623102       0.02108604      -0.00265035       0.01978546      -0.35776222      -0.01509244       0.01615474
C        1.06639045       1.54962382       0.01788645      -0.03192040      -0.01530375       0.00096837      -0.15518724      -0.05985054       0.00550525
H        2.11060344       1.85054082       0.04124646      -0.05398678      -0.03162788       0.02044458      -0.03045610      -0.43859152      -0.03016560
F       -0.59723040      -0.04863636      -0.01639372       0.01788058       0.05106487      -0.06735385      -0.16110416      -0.09387769      -0.03876709
Cl       3.66316032      -0.17105746       0.12697149      -0.00347724       0.04752150      -0.00219915       0.40381669      -0.06559474       0.00241714
H        0.58436065       1.86810292       0.94985504       0.00638374       0.00082702       0.00080629      -0.02531696       0.15048892       0.01067366
C        1.23240213      -0.69014100      -1.21085144      -0.02869266      -0.00658885       0.01079450       0.01680002       0.04017033       0.08349972
N        1.16425527      -1.29205802      -2.22122641      -0.01691653       0.01124407       0.03615828       0.14736534       0.05296241       0.06173999
N        1.09873225      -0.71213545       1.26595604       0.03369421      -0.00647067       0.01642444      -0.02056432       0.02355101      -0.00209030
O        1.10427972      -0.05616634       2.30002899      -0.00366688      -0.04337067      -0.00821965       0.14313554       0.03382553      -0.00751871
O        1.05093302      -1.93159985       1.18201360       0.03234514      -0.04415002       0.01571303       0.12735233       0.01342902       0.01289182
N        0.43164284       2.03946718      -1.20727265      -0.01221340       0.00491004      -0.01037308      -0.04769951       0.07331145      -0.00732293
H        0.42147137       3.04912565      -1.21318509       0.03658861      -0.01697704      -0.06493923       0.05867211       0.07904817       0.01963609
H       -0.52434449       1.71406580      -1.20089276       0.00289557       0.05157173       0.03199002      -0.09905153       0.20622009      -0.12665379
14
Properties=species:S:1:pos:R:3:mp2_forces:R:3:forces:R:3 R1=CN R2=NO2 R3=H R4=NH2 lg=F nu=Cl rxn-id=1386 mp2_energy=-26935.80253112882 energy=-26935.411522287483 free_energy=-26935.802533531172 pbc="F F F"
C        0.89109919       0.05292554      -0.01874520       0.02108604      -0.00265035       0.01978546      -1.06434411      -0.02885472      -0.00798250
C        1.09516663       1.56082845       0.01693726      -0.03192040      -0.01530375       0.00096837      -0.19524960      -0.08513812       0.01913705
H        2.11627740       1.93199035       0.04820077      -0.05398678      -0.03162788       0.02044458      -0.00752782      -0.54223904      -0.02822362
F       -0.56800881      -0.03073131      -0.00727552       0.01788058       0.05106487      -0.06735385       0.03610056      -0.07436098      -0.04734880
Cl       3.58758744      -0.15978329       0.12507033      -0.00347724       0.04752150      -0.00219915       0.68075954      -0.12628194       0.01529203
H        0.58788856       1.84042073       0.94728187       0.00638374       0.00082702       0.00080629      -0.01340848       0.24023980       0.03751691
C        1.22739955      -0.69756339      -1.22592642      -0.02869266      -0.00658885       0.01079450       0.17477576       0.06139367       0.12149617
N        1.13726513      -1.30091654      -2.23370812      -0.01691653       0.01124407       0.03615828       0.13823631       0.05914420       0.08197733
N        1.10293935      -0.71674366       1.26679271       0.03369421      -0.00647067       0.01642444       0.02677858       0.01866134      -0.01168282
O        1.07924635      -0.06211602       2.30152211      -0.00366688      -0.04337067      -0.00821965       0.18615866       0.01555423       0.00382787
O        1.02729257      -1.93435779       1.18080118       0.03234514      -0.04415002       0.01571303       0.17699837      -0.00485771       0.02028263
N        0.44245307       2.02686215      -1.20671888      -0.01221340       0.00491004      -0.01037308      -0.05329592       0.10456603      -0.01397650
H        0.40803602       3.03556362      -1.21383796       0.03658861      -0.01697704      -0.06493923       0.02621518       0.10504358       0.00008522
H       -0.50282526       1.67300779      -1.18248914       0.00289557       0.05157173       0.03199002      -0.11219705       0.25712966      -0.19040096
14
Properties=species:S:1:pos:R:3:mp2_forces:R:3:forces:R:3 R1=CN R2=NO2 R3=H R4=NH2 lg=F nu=Cl rxn-id=1386 mp2_energy=-26935.80253112882 energy=-26935.207463633928 free_energy=-26935.802533531172 pbc="F F F"
C        0.96714036       0.05476324      -0.01843486       0.02108604      -0.00265035       0.01978546      -1.86495855      -0.03079505      -0.03127005
C        1.10905995       1.56687380       0.01548582      -0.03192040      -0.01530375       0.00096837      -0.16089892      -0.06925618       0.02469692
H        2.11669658       1.97091327       0.05001791      -0.05398678      -0.03162788       0.02044458       0.02172216      -0.48160825      -0.02373079
F       -0.57046112      -0.02560482      -0.00396102       0.01788058       0.05106487      -0.06735385       0.45075568      -0.02478494      -0.01966457
Cl       3.53921299      -0.15060199       0.12417997      -0.00347724       0.04752150      -0.00219915       0.78533526      -0.14033826       0.02742745
H        0.58898978       1.82313497       0.94465357       0.00638374       0.00082702       0.00080629       0.00560706       0.24478554       0.05236657
C        1.21505364      -0.70153962      -1.23379010      -0.02869266      -0.00658885       0.01079450       0.32552291       0.02264518       0.05403725
N        1.12756203      -1.30585069      -2.24034198      -0.01691653       0.01124407       0.03615828       0.10951392       0.04623854       0.07093279
N        1.10100611      -0.71821867       1.26758709       0.03369421      -0.00647067       0.01642444       0.13198566      -0.00098025       0.01143822
O        1.06591130      -0.06326146       2.30120832      -0.00366688      -0.04337067      -0.00821965       0.16650706      -0.00036468       0.02394269
O        1.01446832      -1.93411352       1.17948473       0.03234514      -0.04415002       0.01571303       0.16185850      -0.02498216       0.03323408
N        0.44592716       2.01939108      -1.20562731      -0.01221340       0.00491004      -0.01037308      -0.04295667       0.10685703      -0.01641262
H        0.40666454       3.02808949      -1.21425719       0.03658861      -0.01697704      -0.06493923       0.00364401       0.09652112      -0.01504615
H       -0.49541443       1.65541154      -1.16829995       0.00289557       0.05157173       0.03199002      -0.09363807       0.25606238      -0.19195178
14
Properties=species:S:1:pos:R:3:mp2_forces:R:3:forces:R:3 R1=CN R2=NO2 R3=H R4=NH2 lg=F nu=Cl rxn-id=1386 mp2_energy=-26935.80253112882 energy=-26934.98836934597 free_energy=-26935.802533531172 pbc="F F F"
C        1.04719393       0.05613865      -0.01699420       0.02108604      -0.00265035       0.01978546      -1.90526932      -0.01320509      -0.03723577
C        1.11596621       1.56984801       0.01440238      -0.03192040      -0.01530375       0.00096837      -0.10488848      -0.02360640       0.02022047
H        2.11572952       1.99171285       0.05101129      -0.05398678      -0.03162788       0.02044458       0.03265714      -0.35597530      -0.01939495
F       -0.58979156      -0.02457641      -0.00312940       0.01788058       0.05106487      -0.06735385       0.55665606       0.00058699       0.00245095
Cl       3.50551025      -0.14455040       0.12304630      -0.00347724       0.04752150      -0.00219915       0.68515696      -0.11678033       0.03057193
H        0.58879998       1.81260007       0.94241957       0.00638374       0.00082702       0.00080629       0.01388927       0.19792215       0.04820031
C        1.20108766      -0.70301758      -1.23692850      -0.02869266      -0.00658885       0.01079450       0.33350899       0.00035014       0.01191967
N        1.12296082      -1.30752240      -2.24277499      -0.01691653       0.01124407       0.03615828       0.08014350       0.00589500       0.01066225
N        1.09532586      -0.71821011       1.26712365       0.03369421      -0.00647067       0.01642444       0.16947329      -0.02249659       0.04024077
O        1.05878566      -0.06327816       2.30014957      -0.00366688      -0.04337067      -0.00821965       0.11977647      -0.00823907       0.03591782
O        1.00744951      -1.93311403       1.17813514       0.03234514      -0.04415002       0.01571303       0.11843536      -0.03187340       0.03698239
N        0.44771480       2.01482460      -1.20491250      -0.01221340       0.00491004      -0.01037308      -0.03131839       0.09001483      -0.01141795
H        0.40657715       3.02397368      -1.21370646       0.03658861      -0.01697704      -0.06493923      -0.00499410       0.07480637      -0.01945450
H       -0.49149259       1.64455786      -1.15993687       0.00289557       0.05157173       0.03199002      -0.06322675       0.20260072      -0.14966339
14
Properties=species:S:1:pos:R:3:mp2_forces:R:3:forces:R:3 R1=CN R2=NO2 R3=H R4=NH2 lg=F nu=Cl rxn-id=1386 mp2_energy=-26935.80253112882 energy=-26934.821869516036 free_energy=-26935.802533531172 pbc="F F F"
C        1.12175291       0.05663471      -0.01555519       0.02108604      -0.00265035       0.01978546      -1.36604312       0.00085010      -0.02460738
C        1.12008219       1.57078775       0.01359927      -0.03192040      -0.01530375       0.00096837      -0.06114309       0.00645088       0.01250264
H        2.11443063       2.00575890       0.05177246      -0.05398678      -0.03162788       0.02044458       0.02660979      -0.22291919      -0.01416116
F       -0.61153864      -0.02462748      -0.00322435       0.01788058       0.05106487      -0.06735385       0.42210155       0.00583254       0.00887764
Cl       3.47871304      -0.13997564       0.12186500      -0.00347724       0.04752150      -0.00219915       0.46855344      -0.07697057       0.02470256
H        0.58829419       1.80485176       0.94054477       0.00638374       0.00082702       0.00080629       0.01160302       0.13502754       0.03343099