15
Properties=species:S:1:pos:R:3:mp2_forces:R:3:forces:R:3 R1=CH3 R2=H R3=CN R4=NH2 lg=Cl nu=Cl rxn-id=1852 mp2_energy=-32244.3672599729 energy=-32244.367243188757 free_energy=-32244.367243188757 pbc="F F F"
C        0.55257476      -0.04736792      -0.09131716       0.05722618       0.03680726      -0.03712831       0.05713802       0.03676301      -0.03711242
C        0.79628396       1.45584576      -0.11054395       0.03345547       0.04334048      -0.01148190       0.03344757       0.04327176      -0.01156813
H        1.88497066       1.53069920      -0.21741906       0.01440408       0.02920873       0.00092952       0.01441011       0.02923442       0.00093735
Cl      -1.20045461      -0.37106271       0.23595705      -0.03239991      -0.03095376      -0.01305909      -0.03231929      -0.03092972      -0.01307582
Cl       3.77332892      -0.14966293       0.63131634       0.01419807       0.06617808      -0.01970313       0.01420571       0.06617815      -0.01970127
H        1.11870374      -0.45719326       0.74173876      -0.04606705      -0.01533083       0.06185261      -0.04607701      -0.01531861       0.06183975
C        0.98569026      -0.71542163      -1.37755868      -0.00621990      -0.01012965      -0.04973112      -0.00617697      -0.01007716      -0.04969950
H        0.33378311      -0.44799633      -2.20990666       0.00668981       0.03693493       0.01943772       0.00668547       0.03693469       0.01943702
H        2.01047720      -0.40009847      -1.58163008      -0.02647423      -0.05659552       0.02203120      -0.02649878      -0.05661485       0.02201873
H        0.99223600      -1.79920872      -1.24427295      -0.05028671       0.01810404      -0.02041635      -0.05029411       0.01808488      -0.02041678
C        0.45239391       2.08174254       1.18353714      -0.00070514      -0.00695724       0.00889358      -0.00066861      -0.00701664       0.00882550
N        0.16401214       2.66716763       2.16087945      -0.03710269      -0.02116234      -0.02514101      -0.03713931      -0.02107749      -0.02502444
N        0.13698062       2.11001453      -1.24055329       0.01364509      -0.02987284       0.02323403       0.01364435      -0.02984911       0.02327769
H        0.35958922       3.09882459      -1.22193524       0.02876236      -0.03709856      -0.03825759       0.02875193      -0.03711725      -0.03826618
H       -0.86931350       2.02668391      -1.13814505       0.03087458      -0.02247278       0.07853984       0.03089093      -0.02246608       0.07852850
15
Properties=species:S:1:pos:R:3:mp2_forces:R:3:forces:R:3 R1=CH3 R2=H R3=CN R4=NH2 lg=Cl nu=Cl rxn-id=1852 mp2_energy=-32244.3672599729 energy=-32244.380629650746 free_energy=-32244.367243188757 pbc="F F F"
C        0.55692872      -0.04509548      -0.10067017       0.05722618       0.03680726      -0.03712831       0.00084519      -0.00664898       0.00322264
C        0.81371790       1.45656045      -0.12097374       0.03345547       0.04334048      -0.01148190      -0.00487585      -0.00545196       0.00269368
H        1.89818439       1.53910466      -0.25667305       0.01440408       0.02920873       0.00092952      -0.00421208      -0.00428116       0.00783161
Cl      -1.21298392      -0.34707931       0.18361909      -0.03239991      -0.03095376      -0.01305909       0.00602978      -0.01440815       0.01928717
Cl       3.72963252      -0.10988893       0.70396081       0.01419807       0.06617808      -0.01970313       0.03846658       0.04502799      -0.02363335
H        1.08497383      -0.46395872       0.75243957      -0.04606705      -0.01533083       0.06185261       0.01359700      -0.00444261      -0.00263907
C        0.99322857      -0.71718734      -1.38443357      -0.00621990      -0.01012965      -0.04973112      -0.00657627      -0.00367316       0.00050594
H        0.33831334      -0.44656124      -2.21284118       0.00668981       0.03693493       0.01943772       0.01907530       0.04145464      -0.00657475
H        2.01735563      -0.40734654      -1.59430671      -0.02647423      -0.05659552       0.02203120       0.01262439      -0.04241432       0.02967625
H        0.99588695      -1.80019405      -1.25071542      -0.05028671       0.01810404      -0.02041635      -0.05736134      -0.00766779      -0.01828048
C        0.50036459       2.07766276       1.18283010      -0.00070514      -0.00695724       0.00889358      -0.01670489      -0.00590206      -0.00003716
N        0.22015024       2.65492321       2.16716076      -0.03710269      -0.02116234      -0.02514101      -0.03356688      -0.00550778      -0.00490930
N        0.11305954       2.09827525      -1.23189674       0.01364509      -0.02987284       0.02323403       0.00044829      -0.00479187       0.00003377
H        0.32810325       3.08821824      -1.23683101       0.02876236      -0.03709856      -0.03825759       0.03338680      -0.01178100      -0.01995330
H       -0.88565916       2.00553324      -1.08052212       0.03087458      -0.02247278       0.07853984      -0.00117604       0.03048820       0.01277635
15
Properties=species:S:1:pos:R:3:mp2_forces:R:3:forces:R:3 R1=CH3 R2=H R3=CN R4=NH2 lg=Cl nu=Cl rxn-id=1852 mp2_energy=-32244.3672599729 energy=-32244.361438794087 free_energy=-32244.367243188757 pbc="F F F"
C        0.55741205      -0.03769061      -0.10359425       0.05722618       0.03680726      -0.03712831      -0.00436928      -0.00937971       0.00220299
C        0.81867482       1.46332667      -0.12353609       0.03345547       0.04334048      -0.01148190      -0.01318621      -0.00841591       0.00008635
H        1.90216475       1.54703600      -0.26508836       0.01440408       0.02920873       0.00092952      -0.01147620      -0.01448037       0.00801277
Cl      -1.21830407      -0.32986948       0.16232077      -0.03239991      -0.03095376      -0.01305909       0.00759427      -0.03010741       0.03832729
Cl       3.69262130      -0.15976922       0.71803594       0.01419807       0.06617808      -0.01970313       0.06632300       0.04508824      -0.01278813
H        1.07167551      -0.45844546       0.75636600      -0.04606705      -0.01533083       0.06185261       0.02516592      -0.00184441      -0.00998963
C        1.00154884      -0.71428734      -1.38368374      -0.00621990      -0.01012965      -0.04973112      -0.01238972      -0.00339248      -0.00127621
H        0.31985896      -0.48978015      -2.20429729       0.00668981       0.03693493       0.01943772       0.01944150       0.04899255      -0.01451896
H        2.00651246      -0.36694140      -1.62365600      -0.02647423      -0.05659552       0.02203120       0.01252633      -0.04280370       0.04155962
H        1.05567404      -1.79295303      -1.22889114      -0.05028671       0.01810404      -0.02041635      -0.06700535      -0.01010654      -0.02307798
C        0.51417790       2.08272218       1.18347812      -0.00070514      -0.00695724       0.00889358      -0.02428079      -0.00745237      -0.00345953
N        0.24368349       2.65624584       2.17271057      -0.03710269      -0.02116234      -0.02514101      -0.03745443      -0.00275077      -0.00954742
N        0.11042813       2.10242249      -1.23085426       0.01364509      -0.02987284       0.02323403       0.00002062      -0.00069450      -0.00332417
H        0.30127272       3.09722154      -1.22534929       0.02876236      -0.03709856      -0.03825759       0.04377760      -0.00838608      -0.01748652
H       -0.88614451       1.98372817      -1.08381435       0.03087458      -0.02247278       0.07853984      -0.00468727       0.04573345       0.00527954
15
Properties=species:S:1:pos:R:3:mp2_forces:R:3:forces:R:3 R1=CH3 R2=H R3=CN R4=NH2 lg=Cl nu=Cl rxn-id=1852 mp2_energy=-32244.3672599729 energy=-32244.346380320498 free_energy=-32244.367243188757 pbc="F F F"
C        0.55824124      -0.03268219      -0.10309173       0.05722618       0.03680726      -0.03712831      -0.01402791      -0.01115034      -0.00118922
C        0.82520850       1.46787116      -0.12243667       0.03345547       0.04334048      -0.01148190      -0.02419338      -0.01148231      -0.00335500
H        1.90817977       1.55427320      -0.26594327       0.01440408       0.02920873       0.00092952      -0.01973826      -0.03577814       0.01010496
Cl      -1.22466649      -0.31064531       0.14193694      -0.03239991      -0.03095376      -0.01305909       0.00715142      -0.05013097       0.05705454
Cl       3.66589818      -0.18073388       0.70525536       0.01419807       0.06617808      -0.01970313       0.09927742       0.04257539       0.00184633
H        1.05495580      -0.45746079       0.76466662      -0.04606705      -0.01533083       0.06185261       0.04030221       0.00446805      -0.02178395
C        1.00809226      -0.71312919      -1.38031268      -0.00621990      -0.01012965      -0.04973112      -0.01957334      -0.00283527      -0.00385363
H        0.31091448      -0.51460791      -2.19448515       0.00668981       0.03693493       0.01943772       0.02006777       0.04716791      -0.02791415
H        2.00082892      -0.34611873      -1.63999288      -0.02647423      -0.05659552       0.02203120       0.01039093      -0.03755077       0.05562576
H        1.09074324      -1.78817738      -1.21404496      -0.05028671       0.01810404      -0.02041635      -0.07278639      -0.01061244      -0.02235451
C        0.52227847       2.08537330       1.18613425      -0.00070514      -0.00695724       0.00889358      -0.03143180      -0.00805642      -0.00726521
N        0.25371236       2.65299307       2.17932368      -0.03710269      -0.02116234      -0.02514101      -0.03717534       0.00160291      -0.01475089
N        0.11319807       2.10243597      -1.22966196       0.01364509      -0.02987284       0.02323403      -0.00093168       0.00724222      -0.00674415
H        0.28503807       3.10042638      -1.21923944       0.02876236      -0.03709856      -0.03825759       0.05240196      -0.00031171      -0.01204599
H       -0.88136649       1.96314849      -1.08796149       0.03087458      -0.02247278       0.07853984      -0.00973363       0.06485188      -0.00337487
15
Properties=species:S:1:pos:R:3:mp2_forces:R:3:forces:R:3 R1=CH3 R2=H R3=CN R4=NH2 lg=Cl nu=Cl rxn-id=1852 mp2_energy=-32244.3672599729 energy=-32244.316392700184 free_energy=-32244.367243188757 pbc="F F F"
C        0.56376412      -0.02740168      -0.10313755       0.05722618       0.03680726      -0.03712831      -0.03850895      -0.01014141      -0.00885756
C        0.83581794       1.47375470      -0.12136443       0.03345547       0.04334048      -0.01148190      -0.04263542      -0.01770746      -0.00915391
H        1.91683076       1.57155220      -0.27017830       0.01440408       0.02920873       0.00092952      -0.03013853      -0.09244415       0.01472818
Cl      -1.22911980      -0.28854809       0.11456367      -0.03239991      -0.03095376      -0.01305909       0.00453631      -0.06900230       0.07784916
Cl       3.60847649      -0.20005123       0.70025333       0.01419807       0.06617808      -0.01970313       0.17923843       0.03147256       0.03017848
H        1.03358711      -0.45843245       0.77550346      -0.04606705      -0.01533083       0.06185261       0.07174778       0.01926224      -0.04456632
C        1.01838663      -0.71308457      -1.37813796      -0.00621990      -0.01012965      -0.04973112      -0.03620853       0.00055697      -0.00595710
H        0.29896139      -0.54535801      -2.17956458       0.00668981       0.03693493       0.01943772       0.02178939       0.03561994      -0.05623470
H        1.99389786      -0.32491038      -1.66967013      -0.02647423      -0.05659552       0.02203120       0.00157096      -0.01813930       0.08802492
H        1.13490977      -1.78303124      -1.19947218      -0.05028671       0.01810404      -0.02041635      -0.08078231      -0.00416781      -0.01505622
C        0.53737207       2.08826752       1.19012961      -0.00070514      -0.00695724       0.00889358      -0.04056653      -0.00753777      -0.01464040
N        0.27608422       2.65126882       2.18794415      -0.03710269      -0.02116234      -0.02514101      -0.04242479       0.00349935      -0.02117812
N        0.11578961       2.10180788      -1.22683279       0.01364509      -0.02987284       0.02323403      -0.00565185       0.02071616      -0.01226299
H        0.26140617       3.10349698      -1.20852782       0.02876236      -0.03709856      -0.03825759       0.05883557       0.01395848      -0.00887782
H       -0.87490792       1.93363573      -1.09136186       0.03087458      -0.02247278       0.07853984      -0.02080154       0.09405450      -0.01399561
15
Properties=species:S:1:pos:R:3:mp2_forces:R:3:forces:R:3 R1=CH3 R2=H R3=CN R4=NH2 lg=Cl nu=Cl rxn-id=1852 mp2_energy=-32244.3672599729 energy=-32244.254685197106 free_energy=-32244.367243188757 pbc="F F F"
C        0.58321313      -0.02223138      -0.09915611       0.05722618       0.03680726      -0.03712831      -0.12992204      -0.01164153      -0.02116341
C        0.85683260       1.48257180      -0.11545530       0.03345547       0.04334048      -0.01148190      -0.08775612      -0.03378734      -0.02033201
H        1.93269094       1.61641143      -0.27196759       0.01440408       0.02920873       0.00092952      -0.05112228      -0.22794806       0.02260283
Cl      -1.22928904      -0.25744967       0.07943904      -0.03239991      -0.03095376      -0.01305909       0.04050410      -0.09054531       0.09859736
Cl       3.53736392      -0.20868686       0.68158008       0.01419807       0.06617808      -0.01970313       0.32050173       0.00852575       0.08031483
H        1.00211183      -0.46806649       0.79619779      -0.04606705      -0.01533083       0.06185261       0.15871369       0.05949338      -0.09319086
C        1.03353440      -0.71401132      -1.37587916      -0.00621990      -0.01012965      -0.04973112      -0.08067236       0.00868125      -0.00641896
H        0.28712732      -0.55727709      -2.15365322       0.00668981       0.03693493       0.01943772       0.02763391      -0.00375172      -0.12229358
H        1.99433183      -0.32453296      -1.71228504      -0.02647423      -0.05659552       0.02203120      -0.02334665       0.03076940       0.17678278
H        1.16181422      -1.78207000      -1.19315884      -0.05028671       0.01810404      -0.02041635      -0.08201590       0.00760010       0.00410630
C        0.55151321       2.09150881       1.19785187      -0.00070514      -0.00695724       0.00889358      -0.05237775      -0.00582509      -0.02880558
N        0.28288110       2.64774625       2.19755472      -0.03710269      -0.02116234      -0.02514101      -0.03982713       0.00634503      -0.02193864
N        0.11998850       2.09039785      -1.22073446       0.01364509      -0.02987284       0.02323403      -0.01679902       0.05318181      -0.02145325
H        0.24104257       3.09464656      -1.21221967       0.02876236      -0.03709856      -0.03825759       0.06190901       0.04878895       0.00329460
H       -0.86390012       1.89400928      -1.07796751       0.03087458      -0.02247278       0.07853984      -0.04542318       0.15011338      -0.05010242
15
Properties=species:S:1:pos:R:3:mp2_forces:R:3:forces:R:3 R1=CH3 R2=H R3=CN R4=NH2 lg=Cl nu=Cl rxn-id=1852 mp2_energy=-32244.3672599729 energy=-32244.05312816012 free_energy=-32244.367243188757 pbc="F F F"
C        0.63115479      -0.01708214      -0.09172942       0.05722618       0.03680726      -0.03712831      -0.65617338      -0.04024386      -0.02653814
C        0.89003649       1.49577994      -0.10872629       0.03345547       0.04334048      -0.01148190      -0.17037674      -0.07173861      -0.02479473
H        1.95290326       1.69935197      -0.28120379       0.01440408       0.02920873       0.00092952      -0.07705934      -0.43839991       0.04820999
Cl      -1.24547170      -0.22107840       0.04358224      -0.03239991      -0.03095376      -0.01305909       0.41581707      -0.06539679       0.03079495
Cl       3.41591863      -0.21146443       0.65227965       0.01419807       0.06617808      -0.01970313       0.63280363      -0.04483792       0.18841237
H        0.94065835      -0.48980581       0.83104350      -0.04606705      -0.01533083       0.06185261       0.35718112       0.13866339      -0.16891639
C        1.06311577      -0.71620708      -1.37362987      -0.00621990      -0.01012965      -0.04973112      -0.19124800       0.01896119       0.00785018
H        0.27592065      -0.55919011      -2.10751007       0.00668981       0.03693493       0.01943772       0.02325272      -0.09346407      -0.26022987
H        2.00144203      -0.33353232      -1.78026297      -0.02647423      -0.05659552       0.02203120      -0.08765871       0.10539083       0.33084181
H        1.19679328      -1.78361100      -1.19176959      -0.05028671       0.01810404      -0.02041635      -0.07979126       0.02153503       0.03201860
C        0.57249558       2.09223520       1.20651284      -0.00070514      -0.00695724       0.00889358      -0.05802960       0.03646978      -0.00790474
N        0.29821036       2.64253480       2.20805808      -0.03710269      -0.02116234      -0.02514101      -0.04193753       0.00021457      -0.02361416
N        0.12733237       2.07104243      -1.21357229       0.01364509      -0.02987284       0.02323403      -0.03618755       0.10708007      -0.02821059
H        0.21661050       3.07755892      -1.21260723       0.02876236      -0.03709856      -0.03825759       0.04309153       0.10065757      -0.00587973
H       -0.84586399       1.83643420      -1.06031816       0.03087458      -0.02247278       0.07853984      -0.07368397       0.22510874      -0.09203954
15
Properties=species:S:1:pos:R:3:mp2_forces:R:3:forces:R:3 R1=CH3 R2=H R3=CN R4=NH2 lg=Cl nu=Cl rxn-id=1852 mp2_energy=-32244.3672599729 energy=-32243.71717635365 free_energy=-32244.367243188757 pbc="F F F"
C        0.72404825      -0.01249373      -0.08614214       0.05722618       0.03680726      -0.03712831      -1.47852875      -0.06827658      -0.06658816
C        0.91364371       1.50575425      -0.10528268       0.03345547       0.04334048      -0.01148190      -0.18919378      -0.08291134      -0.00179352
H        1.96301859       1.76192294      -0.28611895       0.01440408       0.02920873       0.00092952      -0.05913608      -0.43518311       0.05533415
Cl      -1.30232635      -0.21272857       0.04116081      -0.03239991      -0.03095376      -0.01305909       0.93429508       0.02514100      -0.07201668
Cl       3.32859950      -0.20374050       0.62173009       0.01419807       0.06617808      -0.01970313       0.80082267      -0.06872305       0.24134153
H        0.89278621      -0.50887526       0.85399546      -0.04606705      -0.01533083       0.06185261       0.47926250       0.12843923      -0.10862562
C        1.08953839      -0.71882888      -1.37537532      -0.00621990      -0.01012965      -0.04973112      -0.22633240       0.01279326       0.02866605
H        0.27278996      -0.54476212      -2.07039252       0.00668981       0.03693493       0.01943772       0.01950835      -0.12111328      -0.29879046
H        2.01410830      -0.35117558      -1.82628631      -0.02647423      -0.05659552       0.02203120      -0.09215012       0.11283892       0.32856103
H        1.20528049      -1.78797890      -1.19634910      -0.05028671       0.01810404      -0.02041635      -0.04948649       0.02273595       0.03206419
C        0.57738336       2.08798295       1.21034699      -0.00070514      -0.00695724       0.00889358      -0.01175011       0.04394670      -0.03377990
N        0.30045593       2.64092785       2.20904532      -0.03710269      -0.02116234      -0.02514101      -0.05345474       0.01161163       0.02475279
N        0.13311958       2.05592018      -1.20984419       0.01364509      -0.02987284       0.02323403      -0.03127551       0.11507651      -0.02428995
H        0.21430193       3.06324148      -1.21282643       0.02876236      -0.03709856      -0.03825759       0.01048955       0.09802330      -0.02351427
H       -0.83549145       1.80780008      -1.04751441       0.03087458      -0.02247278       0.07853984      -0.05307017       0.20560085      -0.08132118
15
Properties=species:S:1:pos:R:3:mp2_forces:R:3:forces:R:3 R1=CH3 R2=H R3=CN R4=NH2 lg=Cl nu=Cl rxn-id=1852 mp2_energy=-32244.3672599729 energy=-32243.452921999004 free_energy=-32244.367243188757 pbc="F F F"
C        0.81268271      -0.00837266      -0.08200294       0.05722618       0.03680726      -0.03712831      -1.30680077      -0.03659573      -0.09882877
C        0.92499323       1.51086159      -0.10496574       0.03345547       0.04334048      -0.01148190      -0.12236151      -0.04844605      -0.00240792
H        1.96660908       1.78822081      -0.28916179       0.01440408       0.02920873       0.00092952      -0.02768651      -0.28120477       0.03953566
Cl      -1.35804912      -0.21400473       0.04574229      -0.03239991      -0.03095376      -0.01305909       0.74776030       0.04349836      -0.06450107
Cl       3.28090394      -0.19941361       0.60672377       0.01419807       0.06617808      -0.01970313       0.63185082      -0.05335815       0.18705611
H        0.86443971      -0.51648180       0.86046753      -0.04606705      -0.01533083       0.06185261       0.36779438       0.05979851      -0.01254593
C        1.10299280      -0.71977029      -1.37708611      -0.00621990      -0.01012965      -0.04973112      -0.14438587       0.00492900       0.01039939
H        0.27135635      -0.53752364      -2.05233911       0.00668981       0.03693493       0.01943772       0.01486053      -0.08543027      -0.20388596
H        2.01954369      -0.35822106      -1.84610362      -0.02647423      -0.05659552       0.02203120      -0.04956801       0.07185058       0.20696931
H        1.20798605      -1.78938314      -1.19816875      -0.05028671       0.01810404      -0.02041635      -0.02620871       0.01383107       0.02104995
C        0.57809709       2.08452351       1.21108490      -0.00070514      -0.00695724       0.00889358      -0.00647525       0.04380730       0.00036168
N        0.30251397       2.64042592       2.20878558      -0.03710269      -0.02116234      -0.02514101      -0.03435448      -0.00544116       0.00062260
N        0.13519739       2.04902329      -1.20846611       0.01364509      -0.02987284       0.02323403      -0.01948474       0.08078384      -0.01476746
H        0.21413215       3.05738073      -1.21166804       0.02876236      -0.03709856      -0.03825759       0.00243713       0.06348770      -0.02139533
H       -0.83214266       1.79570128      -1.04269523       0.03087458      -0.02247278       0.07853984      -0.02737732       0.12848978      -0.04766226
15
Properties=species:S:1:pos:R:3:mp2_forces:R:3:forces:R:3 R1=CH3 R2=H R3=CN R4=NH2 lg=Cl nu=Cl rxn-id=1852 mp2_energy=-32244.3672599729 energy=-32243.314219356904 free_energy=-32244.367243188757 pbc="F F F"
C        0.89269577      -0.00613591      -0.07588335       0.05722618       0.03680726      -0.03712831      -0.54765536      -0.00368503      -0.06236536
C        0.93255320       1.51384665      -0.10485251       0.03345547       0.04334048      -0.01148190      -0.04552196      -0.01224957      -0.00293359
H        1.96834653       1.80562156      -0.29135848       0.01440408       0.02920873       0.00092952      -0.00751986      -0.10388991       0.01750740
Cl      -1.40357746      -0.21642091       0.04991113      -0.03239991      -0.03095376      -0.01305909       0.28858555       0.02170007      -0.02166004
Cl       3.24242019      -0.19599099       0.59480164       0.01419807       0.06617808      -0.01970313       0.27505405      -0.02251448       0.07821574
H        0.84221929      -0.52007155       0.86123528      -0.04606705      -0.01533083       0.06185261       0.14825072       0.01105134       0.01903411
C        1.11171695      -0.72016084      -1.37772757      -0.00621990      -0.01012965      -0.04973112      -0.05296885      -0.00061306      -0.00268171
H        0.27018450      -0.53243906      -2.03968338       0.00668981       0.03693493       0.01943772       0.00291653      -0.03478524      -0.07730396
H        2.02245089      -0.36281338      -1.85892911      -0.02647423      -0.05659552       0.02203120      -0.01640587       0.02469974       0.07413444
H        1.20952097      -1.79029768      -1.19931536      -0.05028671       0.01810404      -0.02041635      -0.00955332       0.00481435       0.00973530
C        0.57804325       2.08199668       1.21157349      -0.00070514      -0.00695724       0.00889358      -0.00549496       0.01583227       0.00194826
N        0.30405534       2.64013060       2.20844412      -0.03710269      -0.02116234      -0.02514101      -0.01898561      -0.00638541       0.00040586
N        0.13657652       2.04411638      -1.20766852       0.01364509      -0.02987284       0.02323403      -0.00665102       0.03332676      -0.00549315
H        0.21437673       3.05353648      -1.21053614       0.02876236      -0.03709856      -0.03825759       0.00409019       0.02497056      -0.01147081
H       -0.83032628       1.78804818      -1.03986463       0.03087458      -0.02247278       0.07853984      -0.00814024       0.04772761      -0.01707249
15
Properties=species:S:1:pos:R:3:mp2_forces:R:3:forces:R:3 R1=CH3 R2=H R3=CN R4=NH2 lg=Cl nu=Cl rxn-id=1852 mp2_energy=-32244.3672599729 energy=-32243.306837594904 free_energy=-32244.367243188757 pbc="F F F"
C        0.97567521      -0.00556269      -0.06634460       0.05722618       0.03680726      -0.03712831       0.44503550      -0.00143552       0.06055396
C        0.93957938       1.51577342      -0.10441856       0.03345547       0.04334048      -0.01148190       0.04147760       0.00779985       0.00398247
H        1.96955969       1.82180243      -0.29345940       0.01440408       0.02920873       0.00092952       0.00732273       0.09421541      -0.00717415
Cl      -1.44667521      -0.21910832       0.05373583      -0.03239991      -0.03095376      -0.01305909      -0.21782241      -0.01023732       0.02321064
Cl       3.20121477      -0.19221995       0.58183351       0.01419807       0.06617808      -0.01970313      -0.23601705       0.02549747      -0.08396183
H        0.82046934      -0.52161093       0.85840327      -0.04606705      -0.01533083       0.06185261      -0.11343224      -0.00094676      -0.02713057
C        1.11948118      -0.72026391      -1.37734295      -0.00621990      -0.01012965      -0.04973112       0.04203486      -0.00093057       0.00624584
H        0.26909235      -0.52759242      -2.02754340       0.00668981       0.03693493       0.01943772      -0.00925895       0.02537346       0.07387180
H        2.02458797      -0.36699910      -1.87054994      -0.02647423      -0.05659552       0.02203120       0.00876130      -0.02652783      -0.06702928
H        1.21088429      -1.79120760      -1.20042198      -0.05028671       0.01810404      -0.02041635       0.00696005      -0.00647671      -0.00388255
C        0.57792491       2.07965043       1.21193756      -0.00070514      -0.00695724       0.00889358      -0.00585930      -0.01250342       0.00628838
N        0.30548846       2.63985969       2.20813606      -0.03710269      -0.02116234      -0.02514101      -0.00184063      -0.01006802      -0.00339228
N        0.13803348       2.03919744      -1.20709631       0.01364509      -0.02987284       0.02323403       0.01247663      -0.02863497       0.00131305
H        0.21471863       3.04987211      -1.20920371       0.02876236      -0.03709856      -0.03825759       0.00855029      -0.02178376       0.00572714
H       -0.82877804       1.78137560      -1.03751877       0.03087458      -0.02247278       0.07853984       0.01161161      -0.03334129       0.01137738
15
Properties=species:S:1:pos:R:3:mp2_forces:R:3:forces:R:3 R1=CH3 R2=H R3=CN R4=NH2 lg=Cl nu=Cl rxn-id=1852 mp2_energy=-32244.3672599729 energy=-32243.439500780496 free_energy=-32244.367243188757 pbc="F F F"
C        1.05737247      -0.00670036      -0.05355025       0.05722618       0.03680726      -0.03712831       1.25155797      -0.01724198       0.19594073
C        0.94764629       1.51658785      -0.10337342       0.03345547       0.04334048      -0.01148190       0.12423959       0.01279653       0.01587537
H        1.97096274       1.83941200      -0.29543126       0.01440408       0.02920873       0.00092952       0.02166887       0.27231171      -0.02673611
Cl      -1.48582517      -0.22161394       0.05707571      -0.03239991      -0.03095376      -0.01305909      -0.59579667      -0.03456491       0.05469913
Cl       3.15383479      -0.18744656       0.56644540       0.01419807       0.06617808      -0.01970313      -0.72282560       0.07524108      -0.24234446
H        0.79842414      -0.52068386       0.85100741      -0.04606705      -0.01533083       0.06185261      -0.33347974       0.01482115      -0.11275193
C        1.12786822      -0.71997593      -1.37539279      -0.00621990      -0.01012965      -0.04973112       0.12715009       0.00263295       0.03002354
H        0.26836481      -0.52200824      -2.01332566       0.00668981       0.03693493       0.01943772      -0.01568701       0.08206949       0.22039280
H        2.02657085      -0.37148820      -1.88276752      -0.02647423      -0.05659552       0.02203120       0.02774285      -0.07100317      -0.18980776
H        1.21235040      -1.79225360      -1.20166418      -0.05028671       0.01810404      -0.02041635       0.02293191      -0.01687383      -0.01656511
C        0.57830504       2.07728134       1.21228712      -0.00070514      -0.00695724       0.00889358      -0.00034291      -0.03602852       0.00958684