12
Properties=species:S:1:pos:R:3:mp2_forces:R:3:forces:R:3 R1=H R2=CH3 R3=H R4=H lg=Br nu=Cl rxn-id=494 mp2_energy=-85738.80639684996 energy=-85738.80639684996 free_energy=-85738.80639684996 pbc="F F F"
C        0.58649044      -0.01533088       0.06626646       0.07329806       0.03327864       0.05357261       0.07329806       0.03327864       0.05357261
C        1.11828449       1.40054242       0.01996452      -0.00382968      -0.00446897      -0.00793208      -0.00382968      -0.00446897      -0.00793208
H        2.20753948       1.32125677      -0.00337622       0.02037134       0.00430103      -0.01704523       0.02037134       0.00430103      -0.01704523
Br      -1.39595671       0.01894027      -0.03175809      -0.09112886       0.00767521       0.00701236      -0.09112886       0.00767521       0.00701236
Cl       3.86386709      -0.77047099      -0.93754275      -0.01823089       0.01252852       0.01788439      -0.01823089       0.01252852       0.01788439
H        0.89720249      -0.55792682      -0.82305197       0.04071972      -0.01656916      -0.02486388       0.04071972      -0.01656916      -0.02486388
H        0.79539944       1.97259996       0.89492954      -0.00410808      -0.01911673       0.00508815      -0.00410808      -0.01911673       0.00508815
H        0.79233763       1.92275422      -0.88157376      -0.01530834      -0.01402633       0.00085155      -0.01530834      -0.01402633       0.00085155
C        1.01730601      -0.76661477       1.30687157      -0.00411140      -0.00601645      -0.00621184      -0.00411140      -0.00601645      -0.00621184
H        2.10774558      -0.82071315       1.27297491       0.02093840      -0.01980047      -0.00437879       0.02093840      -0.01980047      -0.00437879
H        0.68801773      -0.25224660       2.21456801      -0.00269533       0.01564833      -0.01263045      -0.00269533       0.01564833      -0.01263045
H        0.62329955      -1.78456729       1.31671962      -0.01591497       0.00656637      -0.01134679      -0.01591497       0.00656637      -0.01134679
12
Properties=species:S:1:pos:R:3:mp2_forces:R:3:forces:R:3 R1=H R2=CH3 R3=H R4=H lg=Br nu=Cl rxn-id=494 mp2_energy=-85738.80639684996 energy=-85738.79457474197 free_energy=-85738.80639684996 pbc="F F F"
C        0.60153340      -0.01308276       0.07132805       0.07329806       0.03327864       0.05357261      -0.00056068      -0.00091190      -0.00149788
C        1.12630010       1.40452946       0.02010651      -0.00382968      -0.00446897      -0.00793208      -0.00294824       0.00124427       0.00159161
H        2.21644846       1.33360411       0.02918194       0.02037134       0.00430103      -0.01704523      -0.00224923       0.00159911      -0.01774340
Br      -1.38747812       0.02210448      -0.02560925      -0.09112886       0.00767521       0.00701236       0.00166174      -0.00599674      -0.00993953
Cl       3.77222975      -0.77355096      -0.95291172      -0.01823089       0.01252852       0.01788439       0.02275522       0.00015511       0.00118792
H        0.91682627      -0.55542706      -0.81708203       0.04071972      -0.01656916      -0.02486388       0.00774121       0.00059520       0.00172316
H        0.77089491       1.99079972       0.87210777      -0.00410808      -0.01911673       0.00508815       0.01021745      -0.00618678       0.01093089
H        0.82571816       1.90322380      -0.90329272      -0.01530834      -0.01402633       0.00085155      -0.02076983       0.00678020       0.00934098
C        1.02472080      -0.76910335       1.31107684      -0.00411140      -0.00601645      -0.00621184      -0.00297710       0.00092082       0.00175955
H        2.11669584      -0.79979127       1.29988628       0.02093840      -0.01980047      -0.00437879      -0.00304752      -0.01697927      -0.00771112
H        0.66181700      -0.27873486       2.21869312      -0.00269533       0.01564833      -0.01263045       0.01178540       0.01228010       0.00035516
H        0.65582664      -1.79634818       1.29150705      -0.01591497       0.00656637      -0.01134679      -0.02160842       0.00649987       0.01000268
12
Properties=species:S:1:pos:R:3:mp2_forces:R:3:forces:R:3 R1=H R2=CH3 R3=H R4=H lg=Br nu=Cl rxn-id=494 mp2_energy=-85738.80639684996 energy=-85738.78458554843 free_energy=-85738.80639684996 pbc="F F F"
C        0.60934610      -0.01035779       0.07659507       0.07329806       0.03327864       0.05357261       0.00273341      -0.00121155      -0.00176521
C        1.13173000       1.40848245       0.02360811      -0.00382968      -0.00446897      -0.00793208      -0.00622458       0.00308249       0.00505146
H        2.22058153       1.34518707       0.07946381       0.02037134       0.00430103      -0.01704523      -0.00560101       0.00044202      -0.02930571
Br      -1.38006987       0.02382874      -0.02233795      -0.09112886       0.00767521       0.00701236       0.00318721      -0.01300947      -0.02144997
Cl       3.70452939      -0.79708986      -0.99853515      -0.01823089       0.01252852       0.01788439       0.03887634      -0.00529355      -0.00648005
H        0.92604413      -0.55234988      -0.81100725       0.04071972      -0.01656916      -0.02486388       0.01980680       0.00236838       0.00562336
H        0.73757454       2.01110895       0.84663931      -0.00410808      -0.01911673       0.00508815       0.01625000      -0.01154998       0.02082131
H        0.87200776       1.88614667      -0.92301535      -0.01530834      -0.01402633       0.00085155      -0.03693896       0.01315894       0.01769971
C        1.02983297      -0.76826357       1.31661526      -0.00411140      -0.00601645      -0.00621184      -0.00618333       0.00332480       0.00484683
H        2.12173915      -0.76096409       1.33515433       0.02093840      -0.01980047      -0.00437879      -0.00661754      -0.02640258      -0.01460082
H        0.62540667      -0.30881686       2.22283834      -0.00269533       0.01564833      -0.01263045       0.01866384       0.02324279       0.00069543
H        0.70281085      -1.80868868       1.26897330      -0.01591497       0.00656637      -0.01134679      -0.03795218       0.01184772       0.01886365
12
Properties=species:S:1:pos:R:3:mp2_forces:R:3:forces:R:3 R1=H R2=CH3 R3=H R4=H lg=Br nu=Cl rxn-id=494 mp2_energy=-85738.80639684996 energy=-85738.76708337042 free_energy=-85738.80639684996 pbc="F F F"
C        0.61741123      -0.00802390       0.08119603       0.07329806       0.03327864       0.05357261       0.00846721       0.00077553       0.00199674
C        1.13878799       1.41207596       0.02531965      -0.00382968      -0.00446897      -0.00793208      -0.01311304       0.00465757       0.01038464
H        2.22403572       1.36084428       0.13343303       0.02037134       0.00430103      -0.01704523      -0.01288716      -0.01140450      -0.04190417
Br      -1.37306197       0.03029933      -0.01121704      -0.09112886       0.00767521       0.00701236      -0.00039547      -0.02235026      -0.03713751
Cl       3.63352189      -0.81855303      -1.04056027      -0.01823089       0.01252852       0.01788439       0.06386281      -0.01371969      -0.01845908
H        0.92862399      -0.55047851      -0.80754407       0.04071972      -0.01656916      -0.02486388       0.03645763       0.00791396       0.01619953
H        0.70234518       2.03063364       0.81439595      -0.00410808      -0.01911673       0.00508815       0.02500212      -0.01033853       0.03150382
H        0.92433415       1.86667327      -0.94376744      -0.01530834      -0.01402633       0.00085155      -0.05382343       0.01910120       0.02595484
C        1.03656098      -0.76892623       1.32102044      -0.00411140      -0.00601645      -0.00621184      -0.01290643       0.00775767       0.00844103
H        2.12590940      -0.72066162       1.37576750       0.02093840      -0.01980047      -0.00437879      -0.01337094      -0.03136103      -0.03145288
H        0.58688432      -0.34448938       2.22289147      -0.00269533       0.01564833      -0.01263045       0.02773964       0.03160002       0.00730993
H        0.75618034      -1.82117067       1.24405659      -0.01591497       0.00656637      -0.01134679      -0.05503294       0.01736808       0.02716312
12
Properties=species:S:1:pos:R:3:mp2_forces:R:3:forces:R:3 R1=H R2=CH3 R3=H R4=H lg=Br nu=Cl rxn-id=494 mp2_energy=-85738.80639684996 energy=-85738.73568596086 free_energy=-85738.80639684996 pbc="F F F"
C        0.63229147      -0.00966164       0.07960871       0.07329806       0.03327864       0.05357261      -0.00977754       0.01018440       0.01632001
C        1.15126701       1.41305621       0.02179086      -0.00382968      -0.00446897      -0.00793208      -0.03307794       0.00793137       0.02208191
H        2.23073372       1.38696307       0.18163022       0.02037134       0.00430103      -0.01704523      -0.02925456      -0.05752260      -0.05233764
Br      -1.36271991       0.04503775       0.01394013      -0.09112886       0.00767521       0.00701236      -0.01179658      -0.03739722      -0.06282451
Cl       3.54336622      -0.82326354      -1.05530461      -0.01823089       0.01252852       0.01788439       0.13547783      -0.03863136      -0.05444741
H        0.92029351      -0.55442825      -0.81481883       0.04071972      -0.01656916      -0.02486388       0.06763161       0.02432136       0.04609266
H        0.66858887       2.03683529       0.77859203      -0.00410808      -0.01911673       0.00508815       0.03889596       0.02312200       0.04272710
H        0.97635806       1.84850684      -0.96398620      -0.01530834      -0.01402633       0.00085155      -0.06862494       0.01960807       0.03174961
C        1.04876146      -0.77331560       1.32077488      -0.00411140      -0.00601645      -0.00621184      -0.03254548       0.01788658       0.01602035
H        2.13236444      -0.69061024       1.42267661       0.02093840      -0.01980047      -0.00437879      -0.02671675      -0.01747425      -0.07740822
H        0.55086061      -0.37711895       2.20955607      -0.00269533       0.01564833      -0.01263045       0.03958659       0.02463602       0.04266162
H        0.80936775      -1.83377779       1.22053196      -0.01591497       0.00656637      -0.01134679      -0.06979821       0.02333562       0.02936453
12
Properties=species:S:1:pos:R:3:mp2_forces:R:3:forces:R:3 R1=H R2=CH3 R3=H R4=H lg=Br nu=Cl rxn-id=494 mp2_energy=-85738.80639684996 energy=-85738.66473038473 free_energy=-85738.80639684996 pbc="F F F"
C        0.66043022      -0.01873124       0.06656443       0.07329806       0.03327864       0.05357261      -0.13399736       0.03291579       0.04456247
C        1.17205447       1.40942672       0.01066462      -0.00382968      -0.00446897      -0.00793208      -0.08476488       0.01488055       0.04262320
H        2.24508385       1.43155003       0.21053051       0.02037134       0.00430103      -0.01704523      -0.06524858      -0.17624446      -0.05915084
Br      -1.35182609       0.06840408       0.05353439      -0.09112886       0.00767521       0.00701236       0.03808596      -0.05035042      -0.07991563
Cl       3.44444695      -0.80059634      -1.02444469      -0.01823089       0.01252852       0.01788439       0.28780446      -0.09152407      -0.13081913
H        0.88804754      -0.56844388      -0.84086714       0.04071972      -0.01656916      -0.02486388       0.15689808       0.05555395       0.10519745
H        0.64260196       2.01399532       0.74999377      -0.00410808      -0.01911673       0.00508815       0.05221513       0.12145830       0.04792386
H        1.01394381       1.83873826      -0.98061664      -0.01530834      -0.01402633       0.00085155      -0.07897754       0.01329471       0.03112339
C        1.06934119      -0.78277780       1.31312707      -0.00411140      -0.00601645      -0.00621184      -0.08372783       0.03625821       0.02973063
H        2.14453130      -0.68708377       1.47622289       0.02093840      -0.01980047      -0.00437879      -0.05451812       0.03547271      -0.18556986
H        0.52535846      -0.38991365       2.17460263      -0.00269533       0.01564833      -0.01263045       0.04609867      -0.01870088       0.13208617
H        0.84751955      -1.84634458       1.20567999      -0.01591497       0.00656637      -0.01134679      -0.07986800       0.02698561       0.02220830
12
Properties=species:S:1:pos:R:3:mp2_forces:R:3:forces:R:3 R1=H R2=CH3 R3=H R4=H lg=Br nu=Cl rxn-id=494 mp2_energy=-85738.80639684996 energy=-85738.48595725576 free_energy=-85738.80639684996 pbc="F F F"
C        0.71270015      -0.03180787       0.04880513       0.07329806       0.03327864       0.05357261      -0.59897780       0.08288074       0.09144657
C        1.20253790       1.40560402      -0.00224964      -0.00382968      -0.00446897      -0.00793208      -0.18138691       0.01107881       0.04974338
H        2.26602358       1.49568056       0.23518273       0.02037134       0.00430103      -0.01704523      -0.12775829      -0.33438114      -0.06537907
Br      -1.36803902       0.08952937       0.08703000      -0.09112886       0.00767521       0.00701236       0.42833209      -0.04406480      -0.03764497
Cl       3.34091500      -0.76884273      -0.97948850      -0.01823089       0.01252852       0.01788439       0.49959426      -0.16277499      -0.23294228
H        0.82753527      -0.58563114      -0.87422455       0.04071972      -0.01656916      -0.02486388       0.33671998       0.07646497       0.15400612
H        0.62204142       1.97387780       0.72498188      -0.00410808      -0.01911673       0.00508815       0.05195493       0.25992768       0.04802526
H        1.04810999       1.83079650      -0.99513306      -0.01530834      -0.01402633       0.00085155      -0.07879350       0.01707912       0.02207084
C        1.09944505      -0.79444045       1.30494866      -0.00411140      -0.00601645      -0.00621184      -0.17956474       0.05118179       0.02563820
H        2.16169962      -0.69717950       1.54503103       0.02093840      -0.01980047      -0.00437879      -0.10621026       0.10944666      -0.32905100
H        0.50657900      -0.39153912       2.12647443      -0.00269533       0.01564833      -0.01263045       0.03628223      -0.08500789       0.25410565
H        0.88198526      -1.85782431       1.19363372      -0.01591497       0.00656637      -0.01134679      -0.08019197       0.01816904       0.01998131
12
Properties=species:S:1:pos:R:3:mp2_forces:R:3:forces:R:3 R1=H R2=CH3 R3=H R4=H lg=Br nu=Cl rxn-id=494 mp2_energy=-85738.80639684996 energy=-85738.25816978228 free_energy=-85738.80639684996 pbc="F F F"
C        0.78516507      -0.04320079       0.03544750       0.07329806       0.03327864       0.05357261      -1.10033355       0.15086341       0.16591887
C        1.22467864       1.40492093      -0.00781718      -0.00382968      -0.00446897      -0.00793208      -0.20683557       0.00062668       0.03332442
H        2.28151506       1.53609786       0.24148507       0.02037134       0.00430103      -0.01704523      -0.12319497      -0.33785750      -0.05659341
Br      -1.41998810       0.09478530       0.09144792      -0.09112886       0.00767521       0.00701236       0.77754027      -0.03605041       0.00318759
Cl       3.28017359      -0.74761678      -0.94872839      -0.01823089       0.01252852       0.01788439       0.58381583      -0.18691961      -0.26668609
H        0.78663655      -0.59363413      -0.89078231       0.04071972      -0.01656916      -0.02486388       0.41576549       0.03439529       0.08964702
H        0.61691794       1.94280646       0.71900537      -0.00410808      -0.01911673       0.00508815       0.04317736       0.28625535       0.04526675
H        1.05655870       1.82808544      -0.99817472      -0.01530834      -0.01402633       0.00085155      -0.05372115       0.02299069       0.01000592
C        1.12135341      -0.80056736       1.30263694      -0.00411140      -0.00601645      -0.00621184      -0.20491692       0.04356622       0.00748724
H        2.17455060      -0.71186862       1.58400197       0.02093840      -0.01980047      -0.00437879      -0.10118571       0.11852762      -0.32765160
H        0.50336726      -0.38161585       2.09603909      -0.00269533       0.01564833      -0.01263045       0.02560209      -0.09966433       0.27569178
H        0.89060449      -1.85996932       1.19043057      -0.01591497       0.00656637      -0.01134679      -0.05571315       0.00326662       0.02040150
12
Properties=species:S:1:pos:R:3:mp2_forces:R:3:forces:R:3 R1=H R2=CH3 R3=H R4=H lg=Br nu=Cl rxn-id=494 mp2_energy=-85738.80639684996 energy=-85738.05411954696 free_energy=-85738.80639684996 pbc="F F F"
C        0.86088535      -0.05361219       0.02398382       0.07329806       0.03327864       0.05357261      -1.08065891       0.16151664       0.18549999
C        1.23895973       1.40495691      -0.01046843      -0.00382968      -0.00446897      -0.00793208      -0.15115230       0.00574114       0.02385344
H        2.28998936       1.55955006       0.24533485       0.02037134       0.00430103      -0.01704523      -0.07703696      -0.24158447      -0.03808380
Br      -1.47335042       0.09744534       0.09154064      -0.09112886       0.00767521       0.00701236       0.68731688      -0.02779242       0.00905644
Cl       3.23982263      -0.73463305      -0.93019222      -0.01823089       0.01252852       0.01788439       0.49947361      -0.15814687      -0.22526078
H        0.75826014      -0.59574031      -0.89649025       0.04071972      -0.01656916      -0.02486388       0.34253601      -0.00730924       0.01408194
H        0.61381013       1.92358218       0.71564455      -0.00410808      -0.01911673       0.00508815       0.03232110       0.21984256       0.03116416
H        1.06025998       1.82604469      -0.99899817      -0.01530834      -0.01402633       0.00085155      -0.02935386       0.01628515       0.00079171
C        1.13548900      -0.80392197       1.30201786      -0.00411140      -0.00601645      -0.00621184      -0.15005519       0.02890046       0.00983096
H        2.18150660      -0.72018639       1.60669492       0.02093840      -0.01980047      -0.00437879      -0.06121939       0.08596363      -0.23267858
H        0.50144979      -0.37517227       2.07735868      -0.00269533       0.01564833      -0.01263045       0.01877101      -0.07965659       0.20996061
H        0.89445093      -1.86008987       1.18856559      -0.01591497       0.00656637      -0.01134679      -0.03094199      -0.00375997       0.01178391
12
Properties=species:S:1:pos:R:3:mp2_forces:R:3:forces:R:3 R1=H R2=CH3 R3=H R4=H lg=Br nu=Cl rxn-id=494 mp2_energy=-85738.80639684996 energy=-85737.92580514935 free_energy=-85738.80639684996 pbc="F F F"
C        0.93303560      -0.06433516       0.01170469       0.07329806       0.03327864       0.05357261      -0.59326335       0.09971971       0.12046787
C        1.24907233       1.40453157      -0.01227642      -0.00382968      -0.00446897      -0.00793208      -0.07127893       0.00854769       0.01207598
H        2.29516535       1.57582244       0.24795643       0.02037134       0.00430103      -0.01704523      -0.03200670      -0.11343222      -0.01646468
Br      -1.51894790       0.09950706       0.09129926      -0.09112886       0.00767521       0.00701236       0.34678497      -0.01285083       0.00633035
Cl       3.20573749      -0.72384305      -0.91483106      -0.01823089       0.01252852       0.01788439       0.27100236      -0.08607229      -0.12273542
H        0.73566255      -0.59511377      -0.89717034       0.04071972      -0.01656916      -0.02486388       0.17265591      -0.01799255      -0.01689133
H        0.61145053       1.90945463       0.71320249      -0.00410808      -0.01911673       0.00508815       0.01453236       0.11359370       0.01234450
H        1.06246747       1.82450714      -0.99938303      -0.01530834      -0.01402633       0.00085155      -0.00988771       0.00373899      -0.00372768
C        1.14552812      -0.80602326       1.30122166      -0.00411140      -0.00601645      -0.00621184      -0.07104053       0.01157908       0.01013504
H        2.18563004      -0.72595084       1.62238551       0.02093840      -0.01980047      -0.00437879      -0.02445680       0.04111923      -0.10843676
H        0.49996495      -0.37040507       2.06364130      -0.00269533       0.01564833      -0.01263045       0.00755114      -0.04421387       0.10657539
H        0.89676670      -1.85992855       1.18724137      -0.01591497       0.00656637      -0.01134679      -0.01059272      -0.00373663       0.00032675
12
Properties=species:S:1:pos:R:3:mp2_forces:R:3:forces:R:3 R1=H R2=CH3 R3=H R4=H lg=Br nu=Cl rxn-id=494 mp2_energy=-85738.80639684996 energy=-85737.89246909544 free_energy=-85738.80639684996 pbc="F F F"
C        1.00594867      -0.07658060      -0.00307643       0.07329806       0.03327864       0.05357261       0.14008331      -0.02565919      -0.03191135
C        1.25782615       1.40340616      -0.01400076      -0.00382968      -0.00446897      -0.00793208       0.01635702      -0.00399111      -0.00537636
H        2.29917825       1.59002301       0.25015658       0.02037134       0.00430103      -0.01704523       0.00827079       0.02926517       0.00563379
Br      -1.56104572       0.10149984       0.09124225      -0.09112886       0.00767521       0.00701236      -0.07085449       0.00722071       0.00625531
Cl       3.17105640      -0.71282782      -0.89913907      -0.01823089       0.01252852       0.01788439      -0.08366948       0.02692848       0.03831109
H        0.71491957      -0.59261634      -0.89456435       0.04071972      -0.01656916      -0.02486388      -0.03520377       0.00891858       0.01240845
H        0.60928203       1.89652719       0.71095909      -0.00410808      -0.01911673       0.00508815      -0.00724277      -0.01709786      -0.01084725
H        1.06420246       1.82323360      -0.99965173      -0.01530834      -0.01402633       0.00085155       0.00764560      -0.00868580      -0.00678818
C        1.15425888      -0.80762238       1.29979525      -0.00411140      -0.00601645      -0.00621184       0.01643863      -0.00398678      -0.00534540
H        2.18872234      -0.73102262       1.63601277       0.02093840      -0.01980047      -0.00437879       0.00656531      -0.00984921       0.02849365
H        0.49859609      -0.36604843       2.05108652      -0.00269533       0.01564833      -0.01263045      -0.00615599      -0.00063115      -0.02057611
H        0.89858811      -1.85974846       1.18617172      -0.01591497       0.00656637      -0.01134679       0.00776584      -0.00243184      -0.01025764
12
Properties=species:S:1:pos:R:3:mp2_forces:R:3:forces:R:3 R1=H R2=CH3 R3=H R4=H lg=Br nu=Cl rxn-id=494 mp2_energy=-85738.80639684996 energy=-85737.96659526296 free_energy=-85738.80639684996 pbc="F F F"
C        1.07790944      -0.09063266      -0.02097049       0.07329806       0.03327864       0.05357261       0.84961443      -0.16584299      -0.21106855
C        1.26646526       1.40109088      -0.01617236      -0.00382968      -0.00446897      -0.00793208       0.10095881      -0.02792389      -0.02769896
H        2.30280956       1.60402599       0.25212032       0.02037134       0.00430103      -0.01704523       0.04388927       0.16691130       0.02515342
Br      -1.59706171       0.10331879       0.09139293      -0.09112886       0.00767521       0.00701236      -0.42051024       0.02531209       0.00843786
Cl       3.13092642      -0.69985064      -0.88060488      -0.01823089       0.01252852       0.01788439      -0.48462006       0.15704458       0.22424153
H        0.69526293      -0.58820026      -0.88864308       0.04071972      -0.01656916      -0.02486388      -0.22844805       0.05409666       0.07359955
H        0.60729824       1.88281281       0.70837001      -0.00410808      -0.01911673       0.00508815      -0.02670330      -0.15335140      -0.03708058
H        1.06583362       1.82224551      -0.99996374      -0.01530834      -0.01402633       0.00085155       0.02397073      -0.01808755      -0.00976973
C        1.16293007      -0.80903847       1.29710947      -0.00411140      -0.00601645      -0.00621184       0.10139508      -0.01817813      -0.03325671
H        2.19143545      -0.73618161       1.64933304       0.02093840      -0.01980047      -0.00437879       0.03315863      -0.06036230       0.15952813
H        0.49745057      -0.36163147       2.03768783      -0.00269533       0.01564833      -0.01263045      -0.01730223       0.04278203      -0.15391658
H        0.90027337      -1.85973573       1.18533277      -0.01591497       0.00656637      -0.01134679       0.02459692      -0.00240040      -0.01816937
12
Properties=species:S:1:pos:R:3:mp2_forces:R:3:forces:R:3 R1=H R2=CH3 R3=H R4=H lg=Br nu=Cl rxn-id=494 mp2_energy=-85738.80639684996 energy=-85738.14103869516 free_energy=-85738.80639684996 pbc="F F F"
C        1.14911784      -0.10610645      -0.04131253       0.07329806       0.03327864       0.05357261       1.33398164      -0.28889277      -0.37929620
C        1.27609436       1.39762125      -0.01884575      -0.00382968      -0.00446897      -0.00793208       0.17789946      -0.06563613      -0.05346610
H        2.30674639       1.61922259       0.25416610       0.02037134       0.00430103      -0.01704523       0.07479677       0.28551404       0.04101173
Br      -1.63187597       0.10502972       0.09145882      -0.09112886       0.00767521       0.00701236      -0.64487095       0.03625524       0.00870122
Cl       3.08597651      -0.68521122      -0.85968207      -0.01823089       0.01252852       0.01788439      -0.85276272       0.27805511       0.39733798
H        0.67636221      -0.58184847      -0.87939777       0.04071972      -0.01656916      -0.02486388      -0.35116514       0.12027258       0.17569600
H        0.60556038       1.86716681       0.70519080      -0.00410808      -0.01911673       0.00508815      -0.03621409      -0.28426308      -0.06640491
H        1.06769792       1.82125410      -1.00034749      -0.01530834      -0.01402633       0.00085155       0.04040638      -0.02500363      -0.01277674
C        1.17264137      -0.81041350       1.29321500      -0.00411140      -0.00601645      -0.00621184       0.17945892      -0.02824540      -0.07524653
H        2.19437082      -0.74185498       1.66374556       0.02093840      -0.01980047      -0.00437879       0.05621438      -0.10474426       0.27195307
H        0.49665845      -0.35682787       2.02231950      -0.00269533       0.01564833      -0.01263045      -0.01901244       0.08021106      -0.28356138
H        0.90218294      -1.85980883       1.18448166      -0.01591497       0.00656637      -0.01134679       0.04126780      -0.00352277      -0.02394815
12
Properties=species:S:1:pos:R:3:mp2_forces:R:3:forces:R:3 R1=H R2=CH3 R3=H R4=H lg=Br nu=Cl rxn-id=494 mp2_energy=-85738.80639684996 energy=-85738.40116479844 free_energy=-85738.80639684996 pbc="F F F"
C        1.22202845      -0.12294023      -0.06379765       0.07329806       0.03327864       0.05357261       1.35902184      -0.31137588      -0.41492895
C        1.28893813       1.39239068      -0.02237880      -0.00382968      -0.00446897      -0.00793208       0.23280106      -0.09722288      -0.07458399
H        2.31195526       1.63871560       0.25690604       0.02037134       0.00430103      -0.01704523       0.09915490       0.36310457       0.05306770
Br      -1.67213786       0.10685649       0.09127709      -0.09112886       0.00767521       0.00701236      -0.74414390       0.03846750       0.00433738
Cl       3.03388734      -0.66848492      -0.83587149      -0.01823089       0.01252852       0.01788439      -0.97868026       0.31554531       0.44938223
H        0.65680765      -0.57206625      -0.86440816       0.04071972      -0.01656916      -0.02486388      -0.36003557       0.18237980       0.27992014
H        0.60392061       1.84564357       0.70038046      -0.00410808      -0.01911673       0.00508815      -0.03368092      -0.39157733      -0.09446672
H        1.07068055       1.81972012      -1.00102464      -0.01530834      -0.01402633       0.00085155       0.06186962      -0.03584219      -0.01464181
C        1.18563259      -0.81192866       1.28750476      -0.00411140      -0.00601645      -0.00621184       0.23533700      -0.03555283      -0.11065872
H        2.19829468      -0.74904120       1.68229419       0.02093840      -0.01980047      -0.00437879       0.07542507      -0.13259262       0.34647307
H        0.49629889      -0.35065911       2.00100316      -0.00269533       0.01564833      -0.01263045      -0.01027722       0.10658554      -0.39129874
H        0.90522692      -1.85998293       1.18310688      -0.01591497       0.00656637      -0.01134679       0.06320837      -0.00191899      -0.03260159
12
Properties=species:S:1:pos:R:3:mp2_forces:R:3:forces:R:3 R1=H R2=CH3 R3=H R4=H lg=Br nu=Cl rxn-id=494 mp2_energy=-85738.80639684996 energy=-85738.68049849947 free_energy=-85738.80639684996 pbc="F F F"
C        1.29373875      -0.13755027      -0.08261709       0.07329806       0.03327864       0.05357261       0.68721367      -0.15540141      -0.20621767
C        1.31018848       1.38498211      -0.02692579      -0.00382968      -0.00446897      -0.00793208       0.21074367      -0.06666278      -0.04205945
H        2.32103234       1.67278277       0.26074456       0.02037134       0.00430103      -0.01704523       0.08326771       0.32869259       0.05785979
Br      -1.73617308       0.10837024       0.08862920      -0.09112886       0.00767521       0.00701236      -0.64107283       0.03071158      -0.00047276