13
Properties=species:S:1:pos:R:3:mp2_forces:R:3:forces:R:3 R1=H R2=H R3=CN R4=CH3 lg=F nu=Cl rxn-id=95 mp2_energy=-20944.949119090128 energy=-20944.949119090128 free_energy=-20944.949119090128 pbc="F F F"
C        0.67663193      -0.02960056       0.02879292       0.02651298      -0.02267842       0.09278887       0.02651298      -0.02267842       0.09278887
C        1.28180403       1.35653730      -0.08095496       0.00614748       0.00508979      -0.00180654       0.00614748       0.00508979      -0.00180654
H        2.36470439       1.17483265      -0.11380039      -0.00979517       0.01187600       0.00685042      -0.00979517       0.01187600       0.00685042
F       -0.71652209       0.06280614       0.16307177      -0.03454223       0.00858879      -0.06543685      -0.03454223       0.00858879      -0.06543685
Cl       3.87886063      -0.71337666      -0.50490541      -0.00267569       0.00462523      -0.04433201      -0.00267569       0.00462523      -0.04433201
H        0.90795513      -0.59831774      -0.87045825      -0.00173095      -0.02066492       0.02382386      -0.00173095      -0.02066492       0.02382386
H        1.06764351      -0.55609250       0.89796640       0.00863763      -0.02287792      -0.02210626       0.00863763      -0.02287792      -0.02210626
C        0.96128320       2.15072450       1.10630346      -0.00801712       0.03357764      -0.01007424      -0.00801712       0.03357764      -0.01007424
N        0.70007832       2.81039689       2.04219965      -0.01083437      -0.00100749       0.00022428      -0.01083437      -0.00100749       0.00022428
C        0.82911613       2.07503125      -1.35406647       0.00592992       0.00702932       0.00206980       0.00592992       0.00702932       0.00206980
H        1.22004391       1.53394160      -2.21926662      -0.01515934      -0.00123940       0.02130973      -0.01515934      -0.00123940       0.02130973
H       -0.26171336       2.10699185      -1.41231605       0.03158985       0.00596679       0.00872916       0.03158985       0.00596679       0.00872916
H        1.21225465       3.09719953      -1.38627407       0.00393700      -0.00828539      -0.01204023       0.00393700      -0.00828539      -0.01204023
13
Properties=species:S:1:pos:R:3:mp2_forces:R:3:forces:R:3 R1=H R2=H R3=CN R4=CH3 lg=F nu=Cl rxn-id=95 mp2_energy=-20944.949119090128 energy=-20944.950792852396 free_energy=-20944.949119090128 pbc="F F F"
C        0.68768144      -0.02546079       0.05093493       0.02651298      -0.02267842       0.09278887      -0.00471897      -0.00230028       0.00497017
C        1.28472363       1.36608084      -0.05673768       0.00614748       0.00508979      -0.00180654      -0.00203454      -0.00347450       0.00486009
H        2.36899380       1.19911430      -0.07189235      -0.00979517       0.01187600       0.00685042      -0.00227634      -0.00590737       0.00711606
F       -0.71091251       0.06314393       0.13922345      -0.03454223       0.00858879      -0.06543685      -0.00510348      -0.00148067      -0.00825938
Cl       3.81836127      -0.73670989      -0.66300345      -0.00267569       0.00462523      -0.04433201       0.00672397       0.02389455      -0.03334989
H        0.94808529      -0.59961013      -0.83568464      -0.00173095      -0.02066492       0.02382386       0.00392327      -0.00511179       0.00943469
H        1.05562305      -0.54845774       0.93252561       0.00863763      -0.02287792      -0.02210626      -0.01390004      -0.00007340       0.01044781
C        0.93082855       2.17055705       1.11457506      -0.00801712       0.03357764      -0.01007424      -0.00365268       0.00103309       0.00098943
N        0.64247783       2.83287259       2.04080007      -0.01083437      -0.00100749       0.00022428      -0.00485684       0.00720558      -0.00380873
C        0.85029090       2.06427806      -1.34715526       0.00592992       0.00702932       0.00206980       0.00493468      -0.00377195       0.00229299
H        1.26516425       1.51496407      -2.19491489      -0.01515934      -0.00123940       0.02130973      -0.00083473      -0.01087960       0.00405804
H       -0.23840872       2.07916906      -1.42552948       0.03158985       0.00596679       0.00872916       0.00507956       0.00886902       0.00184996
H        1.21923161       3.09113291      -1.38684939       0.00393700      -0.00828539      -0.01204023       0.01671613      -0.00800269      -0.00060124
13
Properties=species:S:1:pos:R:3:mp2_forces:R:3:forces:R:3 R1=H R2=H R3=CN R4=CH3 lg=F nu=Cl rxn-id=95 mp2_energy=-20944.949119090128 energy=-20944.94707846246 free_energy=-20944.949119090128 pbc="F F F"
C        0.70058328      -0.01822583       0.05824215       0.02651298      -0.02267842       0.09278887      -0.00811780      -0.00523976       0.00523361
C        1.28988213       1.37707556      -0.04997796       0.00614748       0.00508979      -0.00180654      -0.00395803      -0.00713427       0.00463532
H        2.37539248       1.22198035      -0.05520560      -0.00979517       0.01187600       0.00685042      -0.00456820      -0.01300533       0.00548888
F       -0.69727883       0.06784464       0.16587834      -0.03454223       0.00858879      -0.06543685      -0.00883989      -0.00453112      -0.01064638
Cl       3.76440333      -0.79731205      -0.71410125      -0.00267569       0.00462523      -0.04433201       0.01678018       0.03895727      -0.03060071
H        0.95061419      -0.58743539      -0.83390099      -0.00173095      -0.02066492       0.02382386       0.00258787      -0.00837474       0.01010984
H        1.08180269      -0.54383882       0.93242399       0.00863763      -0.02287792      -0.02210626      -0.01882627      -0.00326388       0.01185846
C        0.91461713       2.17982296       1.11646369      -0.00801712       0.03357764      -0.01007424      -0.00149162       0.00021205      -0.00022371
N        0.60628686       2.83572108       2.04080602      -0.01083437      -0.00100749       0.00022428       0.00152054       0.01266342      -0.00797634
C        0.85981511       2.06393746      -1.34846587       0.00592992       0.00702932       0.00206980       0.00434851      -0.00416345       0.00323597
H        1.31801227       1.53381773      -2.18606813      -0.01515934      -0.00123940       0.02130973      -0.00688060      -0.01362990       0.00282297
H       -0.22639224       2.03165210      -1.45223968       0.03158985       0.00596679       0.00872916       0.00315240       0.01742177       0.00468319
H        1.18440199       3.10603447      -1.37756273       0.00393700      -0.00828539      -0.01204023       0.02429292      -0.00991207       0.00137888
13
Properties=species:S:1:pos:R:3:mp2_forces:R:3:forces:R:3 R1=H R2=H R3=CN R4=CH3 lg=F nu=Cl rxn-id=95 mp2_energy=-20944.949119090128 energy=-20944.93688648011 free_energy=-20944.949119090128 pbc="F F F"
C        0.71645530      -0.00934124       0.06045382       0.02651298      -0.02267842       0.09278887      -0.01335726      -0.00948874       0.00662502
C        1.29813491       1.38992458      -0.04647038       0.00614748       0.00508979      -0.00180654      -0.00988090      -0.01157064       0.00420926
H        2.38509078       1.24968665      -0.04305906      -0.00979517       0.01187600       0.00685042      -0.01108741      -0.02400924       0.00296078
F       -0.67909770       0.07720352       0.20132500      -0.03454223       0.00858879      -0.06543685      -0.01490211      -0.01402504      -0.01423302
Cl       3.70989377      -0.86563493      -0.73403276      -0.00267569       0.00462523      -0.04433201       0.03611076       0.04931968      -0.03063728
H        0.94443366      -0.56889206      -0.84309543      -0.00173095      -0.02066492       0.02382386       0.00394505      -0.01394662       0.01333125
H        1.11880620      -0.54392829       0.91910541       0.00863763      -0.02287792      -0.02210626      -0.02489388      -0.00453149       0.01644801
C        0.90098543       2.18650856       1.11753208      -0.00801712       0.03357764      -0.01007424       0.00007785       0.00056478      -0.00150422
N        0.57019368       2.83019778       2.04266406      -0.01083437      -0.00100749       0.00022428       0.01194034       0.02289110      -0.01252964
C        0.86637687       2.06526063      -1.35094497       0.00592992       0.00702932       0.00206980       0.00239370      -0.00275168       0.00407132
H        1.36037946       1.55403791      -2.17998265      -0.01515934      -0.00123940       0.02130973      -0.01228746      -0.01259369       0.00152829
H       -0.21551546       1.98563996      -1.47273586       0.03158985       0.00596679       0.00872916      -0.00022479       0.03021531       0.00290955
H        1.14600347       3.12041116      -1.37446728       0.00393700      -0.00828539      -0.01204023       0.03216611      -0.01007374       0.00682069
13
Properties=species:S:1:pos:R:3:mp2_forces:R:3:forces:R:3 R1=H R2=H R3=CN R4=CH3 lg=F nu=Cl rxn-id=95 mp2_energy=-20944.949119090128 energy=-20944.926711231827 free_energy=-20944.949119090128 pbc="F F F"
C        0.72669013      -0.00357144       0.05291189       0.02651298      -0.02267842       0.09278887      -0.01834371      -0.01263041       0.00932498
C        1.30694972       1.39711177      -0.05093150       0.00614748       0.00508979      -0.00180654      -0.01938328      -0.01400521       0.00451093
H        2.39482701       1.26643531      -0.04755687      -0.00979517       0.01187600       0.00685042      -0.02143749      -0.03770034       0.00097713
F       -0.66604580       0.08939636       0.22229335      -0.03454223       0.00858879      -0.06543685      -0.02076525      -0.03024960      -0.01645536
Cl       3.68707684      -0.89962227      -0.69100172      -0.00267569       0.00462523      -0.04433201       0.05677454       0.04441667      -0.03601716
H        0.93123247      -0.55414357      -0.86166071      -0.00173095      -0.02066492       0.02382386       0.00994237      -0.01695455       0.01797624
H        1.14460736      -0.54980006       0.89597437       0.00863763      -0.02287792      -0.02210626      -0.02680928      -0.00196782       0.02202530
C        0.90220769       2.18432949       1.11696737      -0.00801712       0.03357764      -0.01007424      -0.00061469       0.00355701      -0.00158323
N        0.56114331       2.81358729       2.04822392      -0.01083437      -0.00100749       0.00022428       0.02035446       0.03559070      -0.01487368
C        0.86361754       2.06811110      -1.35381459       0.00592992       0.00702932       0.00206980      -0.00012855       0.00093271       0.00446213
H        1.36255647       1.56340600      -2.18405607      -0.01515934      -0.00123940       0.02130973      -0.01296188      -0.00653781       0.00194025
H       -0.21701270       1.96793726      -1.47100031       0.03158985       0.00596679       0.00872916      -0.00314921       0.04292963      -0.00581593
H        1.12429034       3.12789701      -1.38005715       0.00393700      -0.00828539      -0.01204023       0.03652198      -0.00738097       0.01352841
13
Properties=species:S:1:pos:R:3:mp2_forces:R:3:forces:R:3 R1=H R2=H R3=CN R4=CH3 lg=F nu=Cl rxn-id=95 mp2_energy=-20944.949119090128 energy=-20944.911795337346 free_energy=-20944.949119090128 pbc="F F F"
C        0.73770142       0.00255699       0.04369069       0.02651298      -0.02267842       0.09278887      -0.03044543      -0.01156961       0.01531001
C        1.32063846       1.40358903      -0.05686938       0.00614748       0.00508979      -0.00180654      -0.03840063      -0.01415371       0.00746306
H        2.41001348       1.29022664      -0.05369114      -0.00979517       0.01187600       0.00685042      -0.04291193      -0.08411448      -0.00345205
F       -0.65332159       0.11221356       0.22887364      -0.03454223       0.00858879      -0.06543685      -0.03335333      -0.06189007      -0.01014110
Cl       3.65337669      -0.91323845      -0.64176556      -0.00267569       0.00462523      -0.04433201       0.10958895       0.02004575      -0.04960873
H        0.92178620      -0.54449408      -0.87728081      -0.00173095      -0.02066492       0.02382386       0.01910470      -0.00778946       0.02239521
H        1.15824330      -0.55490353       0.87737334       0.00863763      -0.02287792      -0.02210626      -0.02118110       0.00827989       0.02591830
C        0.90809697       2.17808295       1.11672605      -0.00801712       0.03357764      -0.01007424      -0.00054282       0.01471640       0.00151637
N        0.56094791       2.78605515       2.05965104      -0.01083437      -0.00100749       0.00022428       0.02203502       0.05808934      -0.01595707
C        0.86078016       2.06741011      -1.35734153       0.00592992       0.00702932       0.00206980      -0.00455727       0.01013519       0.00530467
H        1.35968499       1.56679190      -2.19034912      -0.01515934      -0.00123940       0.02130973      -0.01003424       0.00168991       0.00793807
H       -0.21855089       1.94564527      -1.46284424       0.03158985       0.00596679       0.00872916      -0.00996330       0.06457599      -0.02388624
H        1.10274327       3.13113872      -1.38988100       0.00393700      -0.00828539      -0.01204023       0.04066139       0.00198483       0.01719950
13
Properties=species:S:1:pos:R:3:mp2_forces:R:3:forces:R:3 R1=H R2=H R3=CN R4=CH3 lg=F nu=Cl rxn-id=95 mp2_energy=-20944.949119090128 energy=-20944.86566024124 free_energy=-20944.949119090128 pbc="F F F"
C        0.75902803       0.01173742       0.03437843       0.02651298      -0.02267842       0.09278887      -0.06925169       0.00275577       0.03035591
C        1.34815694       1.41415233      -0.06183988       0.00614748       0.00508979      -0.00180654      -0.08441577      -0.01002102       0.01579606
H        2.44051990       1.34681645      -0.05333072      -0.00979517       0.01187600       0.00685042      -0.08767402      -0.21162262      -0.01212887
F       -0.63059121       0.15731928       0.23030462      -0.03454223       0.00858879      -0.06543685      -0.06864129      -0.12254307       0.01198858
Cl       3.57784271      -0.92920468      -0.60653668      -0.00267569       0.00462523      -0.04433201       0.24351527      -0.03834466      -0.08011513
H        0.91402619      -0.53668524      -0.89083219      -0.00173095      -0.02066492       0.02382386       0.04534574       0.02201243       0.03484934
H        1.16844964      -0.56054438       0.86287049       0.00863763      -0.02287792      -0.02210626      -0.00312142       0.03268319       0.01993480
C        0.91074126       2.16808043       1.11610478      -0.00801712       0.03357764      -0.01007424       0.00414810       0.05433485       0.01284982
N        0.54750428       2.74300145       2.07323981      -0.01083437      -0.00100749       0.00022428       0.01944333       0.09634206      -0.00825067
C        0.86288460       2.06050725      -1.36109529       0.00592992       0.00702932       0.00206980      -0.01460332       0.03086248       0.00493305
H        1.36531992       1.56702159      -2.19674667      -0.01515934      -0.00123940       0.02130973      -0.00279799       0.01275289       0.02443416
H       -0.21217890       1.89827774      -1.44696084       0.03158985       0.00596679       0.00872916      -0.02560476       0.10820802      -0.06679863
H        1.07043702       3.13059461      -1.40326389       0.00393700      -0.00828539      -0.01204023       0.04365782       0.02257969       0.01215158
13
Properties=species:S:1:pos:R:3:mp2_forces:R:3:forces:R:3 R1=H R2=H R3=CN R4=CH3 lg=F nu=Cl rxn-id=95 mp2_energy=-20944.949119090128 energy=-20944.705526031325 free_energy=-20944.949119090128 pbc="F F F"
C        0.79511376       0.01152940       0.01903008       0.02651298      -0.02267842       0.09278887      -0.30155518       0.07942947       0.08432174
C        1.39295170       1.42019554      -0.07011532       0.00614748       0.00508979      -0.00180654      -0.18561433       0.00598438       0.04022733
H        2.48662698       1.45143662      -0.04981409      -0.00979517       0.01187600       0.00685042      -0.15421914      -0.48025720      -0.02606917
F       -0.59434365       0.22032654       0.22754739      -0.03454223       0.00858879      -0.06543685      -0.13686268      -0.20781519       0.06981702
Cl       3.44884144      -0.91113659      -0.56106682      -0.00267569       0.00462523      -0.04433201       0.60901718      -0.20823870      -0.16468105
H        0.88901116      -0.54316566      -0.91079885      -0.00173095      -0.02066492       0.02382386       0.16093762       0.08984115       0.09578810
H        1.17347772      -0.57791728       0.85048147       0.00863763      -0.02287792      -0.02210626       0.02613666       0.07819536      -0.05664676
C        0.91024898       2.14092812       1.11048486      -0.00801712       0.03357764      -0.01007424       0.05061778       0.18812402       0.01990769
N        0.53474596       2.69129659       2.07632888      -0.01083437      -0.00100749       0.00022428      -0.02006043       0.13273210       0.04902416
C        0.87060694       2.04534305      -1.36348702       0.00592992       0.00702932       0.00206980      -0.03169070       0.07151623      -0.00062386
H        1.36912646       1.56242236      -2.20838177      -0.01515934      -0.00123940       0.02130973       0.00532471       0.01813138       0.05332244
H       -0.19807347       1.83935056      -1.41269928       0.03158985       0.00596679       0.00872916      -0.05127239       0.16889831      -0.14674932
H        1.04380640       3.12046499      -1.41121755       0.00393700      -0.00828539      -0.01204023       0.02924091       0.06345869      -0.01763831
13
Properties=species:S:1:pos:R:3:mp2_forces:R:3:forces:R:3 R1=H R2=H R3=CN R4=CH3 lg=F nu=Cl rxn-id=95 mp2_energy=-20944.949119090128 energy=-20944.44867265405 free_energy=-20944.949119090128 pbc="F F F"
C        0.84667329      -0.00260362       0.00445460       0.02651298      -0.02267842       0.09278887      -1.30779241       0.27463222       0.24659064
C        1.42449138       1.41903278      -0.07696652       0.00614748       0.00508979      -0.00180654      -0.26163300       0.00550955       0.05870232
H        2.51286793       1.53457256      -0.04553208      -0.00979517       0.01187600       0.00685042      -0.16479749      -0.64439311      -0.03438722
F       -0.57101554       0.25588592       0.21509859      -0.03454223       0.00858879      -0.06543685       0.19723754      -0.31496766       0.09773838
Cl       3.34527021      -0.87515832      -0.53238692      -0.00267569       0.00462523      -0.04433201       1.00833137      -0.39289763      -0.25269515
H        0.86078693      -0.55973404      -0.92711447      -0.00173095      -0.02066492       0.02382386       0.40553500       0.08940411       0.16327789
H        1.16828243      -0.59215063       0.86024148       0.00863763      -0.02287792      -0.02210626       0.11297358       0.09492923      -0.23268453
C        0.90225270       2.10787447       1.10557531      -0.00801712       0.03357764      -0.01007424       0.15395072       0.39134528       0.03499857
N        0.53904746       2.67024936       2.06881439      -0.01083437      -0.00100749       0.00022428      -0.08173082       0.09779410       0.09045194
C        0.87584284       2.03314132      -1.36332197       0.00592992       0.00702932       0.00206980      -0.02526781       0.10641247      -0.00440666
H        1.36865614       1.56005795      -2.21741846      -0.01515934      -0.00123940       0.02130973       0.00943170       0.00837310       0.06728844
H       -0.18933239       1.81022882      -1.38808723       0.03158985       0.00596679       0.00872916      -0.05194223       0.18976954      -0.18661775
H        1.03831700       3.10967769      -1.40706474       0.00393700      -0.00828539      -0.01204023       0.00570387       0.09408879      -0.04825688
13
Properties=species:S:1:pos:R:3:mp2_forces:R:3:forces:R:3 R1=H R2=H R3=CN R4=CH3 lg=F nu=Cl rxn-id=95 mp2_energy=-20944.949119090128 energy=-20944.077232398817 free_energy=-20944.949119090128 pbc="F F F"
C        0.92946196      -0.02013285      -0.01123482       0.02651298      -0.02267842       0.09278887      -2.82638659       0.59310315       0.48630504
C        1.44111717       1.41851687      -0.08082711       0.00614748       0.00508979      -0.00180654      -0.24371018       0.02643124       0.05322831
H        2.52329097       1.57552093      -0.04337864      -0.00979517       0.01187600       0.00685042      -0.12055436      -0.59894422      -0.02798939
F       -0.58348823       0.27566188       0.20866041      -0.03454223       0.00858879      -0.06543685       1.08795114      -0.45285247       0.01478594
Cl       3.28135317      -0.85023544      -0.51639844      -0.00267569       0.00462523      -0.04433201       1.15974506      -0.46109344      -0.28265469
H        0.83531717      -0.56579397      -0.93740030      -0.00173095      -0.02066492       0.02382386       0.59967057      -0.03369042       0.05527878
H        1.16082355      -0.59809885       0.87512140       0.00863763      -0.02287792      -0.02210626       0.26484601       0.01869549      -0.25442339
C        0.89222496       2.08345784       1.10405574      -0.00801712       0.03357764      -0.01007424       0.22073677       0.46258167       0.02425001
N        0.54475240       2.66396837       2.06232443      -0.01083437      -0.00100749       0.00022428      -0.10886229       0.06331920       0.10961425
C        0.87741422       2.02646117      -1.36298119       0.00592992       0.00702932       0.00206980      -0.00665915       0.11816095      -0.00909321
H        1.36809040       1.55970336      -2.22163695      -0.01515934      -0.00123940       0.02130973       0.01231809      -0.00080982       0.06163634
H       -0.18607457       1.79823221      -1.37620695       0.03158985       0.00596679       0.00872916      -0.03102375       0.17612785      -0.17857230
H        1.03785721       3.10381274      -1.40380562       0.00393700      -0.00828539      -0.01204023      -0.00807130       0.08897081      -0.05236570
13
Properties=species:S:1:pos:R:3:mp2_forces:R:3:forces:R:3 R1=H R2=H R3=CN R4=CH3 lg=F nu=Cl rxn-id=95 mp2_energy=-20944.949119090128 energy=-20943.688703245443 free_energy=-20944.949119090128 pbc="F F F"
C        1.00983885      -0.03703542      -0.02509089       0.02651298      -0.02267842       0.09278887      -3.05004545       0.70239183       0.52601578
C        1.44807125       1.41773257      -0.08238721       0.00614748       0.00508979      -0.00180654      -0.17223630       0.06331101       0.03672533
H        2.52671932       1.59261692      -0.04259829      -0.00979517       0.01187600       0.00685042      -0.07667370      -0.47091902      -0.02290122
F       -0.61440069       0.28852755       0.20819468      -0.03454223       0.00858879      -0.06543685       1.31613871      -0.44954629      -0.03354059
Cl       3.24833661      -0.83716586      -0.50841328      -0.00267569       0.00462523      -0.04433201       1.03692258      -0.40831023      -0.25082311
H        0.81832862      -0.56493790      -0.93892531      -0.00173095      -0.02066492       0.02382386       0.55110138      -0.13060023      -0.09891505
H        1.15314763      -0.59857915       0.88238719       0.00863763      -0.02287792      -0.02210626       0.30179141      -0.06370908      -0.12219071
C        0.88583362       2.07053359       1.10373279      -0.00801712       0.03357764      -0.01007424       0.19860419       0.38550042      -0.00096882
N        0.54803646       2.66201448       2.05884234      -0.01083437      -0.00100749       0.00022428      -0.09586896       0.05739974       0.11238320
C        0.87760189       2.02311042      -1.36271273       0.00592992       0.00702932       0.00206980       0.00164745       0.10447059      -0.01155752
H        1.36781647       1.55980961      -2.22336525      -0.01515934      -0.00123940       0.02130973       0.01290722      -0.00189102       0.05189092
H       -0.18517050       1.79313583      -1.37113355       0.03158985       0.00596679       0.00872916      -0.01327631       0.14287975      -0.14332593
H        1.03798085       3.10131160      -1.40223852       0.00393700      -0.00828539      -0.01204023      -0.01101220       0.06902253      -0.04279229
13
Properties=species:S:1:pos:R:3:mp2_forces:R:3:forces:R:3 R1=H R2=H R3=CN R4=CH3 lg=F nu=Cl rxn-id=95 mp2_energy=-20944.949119090128 energy=-20943.383975033492 free_energy=-20944.949119090128 pbc="F F F"
C        1.08200414      -0.05366999      -0.03755396       0.02651298      -0.02267842       0.09278887      -2.34236404       0.58386638       0.41115614
C        1.45213575       1.41625141      -0.08322314       0.00614748       0.00508979      -0.00180654      -0.10827806       0.07249750       0.02046917
H        2.52853764       1.60383362      -0.04206402      -0.00979517       0.01187600       0.00685042      -0.04535696      -0.32817258      -0.01911506
F       -0.64549426       0.29916274       0.20896054      -0.03454223       0.00858879      -0.06543685       1.02766482      -0.33832354      -0.03376994
Cl       3.22376670      -0.82753324      -0.50250426      -0.00267569       0.00462523      -0.04433201       0.78482966      -0.30183113      -0.18920002
H        0.80532975      -0.56194683      -0.93657176      -0.00173095      -0.02066492       0.02382386       0.38099083      -0.14920710      -0.16437601
H        1.14587085      -0.59703125       0.88530445       0.00863763      -0.02287792      -0.02210626       0.23118675      -0.09021234      -0.00855440
C        0.88126881       2.06120935       1.10343829      -0.00801712       0.03357764      -0.01007424       0.13428519       0.28433176       0.00618360
N        0.55027560       2.66084918       2.05640107      -0.01083437      -0.00100749       0.00022428      -0.06242864       0.03947083       0.07779763
C        0.87756014       2.02064756      -1.36242586       0.00592992       0.00702932       0.00206980       0.00286926       0.07760208      -0.00996637
H        1.36757048       1.55992212      -2.22457377      -0.01515934      -0.00123940       0.02130973       0.01133990      -0.00069206       0.04005337
H       -0.18483602       1.78967771      -1.36773545       0.03158985       0.00596679       0.00872916      -0.00472415       0.10202786      -0.10112455
H        1.03815081       3.09970187      -1.40116016       0.00393700      -0.00828539      -0.01204023      -0.01001456       0.04864234      -0.02955357
13
Properties=species:S:1:pos:R:3:mp2_forces:R:3:forces:R:3 R1=H R2=H R3=CN R4=CH3 lg=F nu=Cl rxn-id=95 mp2_energy=-20944.949119090128 energy=-20943.192802124377 free_energy=-20944.949119090128 pbc="F F F"
C        1.14957393      -0.07053224      -0.04943711       0.02651298      -0.02267842       0.09278887      -1.29561674       0.34687025       0.23216401
C        1.45527807       1.41415054      -0.08383125       0.00614748       0.00508979      -0.00180654      -0.05968577       0.05380268       0.01053979
H        2.52984999       1.61339010      -0.04152401      -0.00979517       0.01187600       0.00685042      -0.02297409      -0.18363720      -0.01343296
F       -0.67507436       0.30892082       0.20991448      -0.03454223       0.00858879      -0.06543685       0.57219662      -0.18621365      -0.01755964
Cl       3.20108191      -0.81886281      -0.49707283      -0.00267569       0.00462523      -0.04433201       0.45855748      -0.17052126      -0.11051519
H        0.79438552      -0.55775862      -0.93182274      -0.00173095      -0.02066492       0.02382386       0.18992859      -0.10972133      -0.13960540
H        1.13902936      -0.59437502       0.88557735       0.00863763      -0.02287792      -0.02210626       0.11947928      -0.07004013       0.04197421
C        0.87742177       2.05297801       1.10323494      -0.00801712       0.03357764      -0.01007424       0.07069146       0.16266814       0.00427733
N        0.55214712       2.65975816       2.05412343      -0.01083437      -0.00100749       0.00022428      -0.03238405       0.02534294       0.04570845
C        0.87747517       2.01841877      -1.36212581       0.00592992       0.00702932       0.00206980       0.00049114       0.04445204      -0.00584494
H        1.36732064       1.56002614      -2.22570539      -0.01515934      -0.00123940       0.02130973       0.00843759       0.00101359       0.02497575
H       -0.18467311       1.78663334      -1.36481109       0.03158985       0.00596679       0.00872916      -0.00162675       0.05767351      -0.05720608
H        1.03832436       3.09832707      -1.40022798       0.00393700      -0.00828539      -0.01204023      -0.00749475       0.02831042      -0.01547533
13
Properties=species:S:1:pos:R:3:mp2_forces:R:3:forces:R:3 R1=H R2=H R3=CN R4=CH3 lg=F nu=Cl rxn-id=95 mp2_energy=-20944.949119090128 energy=-20943.109037183505 free_energy=-20944.949119090128 pbc="F F F"
C        1.22161588      -0.08985637      -0.06238818       0.02651298      -0.02267842       0.09278887      -0.21528458       0.05795865       0.03826075
C        1.45863697       1.41113787      -0.08445972       0.00614748       0.00508979      -0.00180654      -0.01147483       0.01045656       0.00159433
H        2.53113378       1.62377031      -0.04079932      -0.00979517       0.01187600       0.00685042      -0.00455536      -0.03191733      -0.00351039
F       -0.70675633       0.31927234       0.21087412      -0.03454223       0.00858879      -0.06543685       0.10204052      -0.03260009      -0.00165768