13
Properties=species:S:1:pos:R:3:mp2_forces:R:3:forces:R:3 R1=H R2=H R3=NH2 R4=NH2 lg=Br nu=Br rxn-id=202 mp2_energy=-145181.04044013427 energy=-145181.0404384687 free_energy=-145181.0404384687 pbc="F F F"
C        0.56099895       0.02372052      -0.13402529       0.04071189       0.02932808      -0.02090016       0.04070449       0.02935070      -0.02089584
C        0.92222817       1.48767210      -0.00708835      -0.01031407       0.04728772      -0.01105766      -0.01028093       0.04729596      -0.01105883
H        2.01279428       1.49539298      -0.12667658      -0.01159507      -0.01339516      -0.03875998      -0.01160737      -0.01339642      -0.03876098
Br      -1.38030371      -0.27483943      -0.13742438      -0.00747166      -0.03212426      -0.02780399      -0.00747927      -0.03212587      -0.02780245
Br       3.74217022      -0.04728195       1.46335494      -0.02839698       0.03249646       0.08052242      -0.02839738       0.03249606       0.08052281
H        0.94262912      -0.38109567      -1.07030220      -0.07810702       0.04229911       0.00661562      -0.07810181       0.04229305       0.00661153
H        0.96998581      -0.53645125       0.70154874       0.03363794      -0.04281685       0.01050884       0.03364438      -0.04282744       0.01051045
N        0.52716361       1.97403352       1.31861961      -0.00786544      -0.00933499       0.01639261      -0.00786677      -0.00934689       0.01636494
H        0.82293879       2.94333261       1.39038687       0.04303624      -0.03000486      -0.01488789       0.04302354      -0.02999709      -0.01488006
H        1.09623610       1.46367685       1.99188099       0.04184372      -0.00656978      -0.00330847       0.04184794      -0.00657216      -0.00329745
N        0.34033975       2.26591708      -1.08580125      -0.01330296      -0.00483408      -0.05693188      -0.01329891      -0.00485017      -0.05693023
H        0.72811585       3.20260278      -1.06735288       0.01396206      -0.02491124       0.01406655       0.01395432      -0.02490579       0.01407560
H       -0.65686234       2.34385567      -0.91678185      -0.01613865       0.01257984       0.04554401      -0.01614220       0.01258606       0.04554053
13
Properties=species:S:1:pos:R:3:mp2_forces:R:3:forces:R:3 R1=H R2=H R3=NH2 R4=NH2 lg=Br nu=Br rxn-id=202 mp2_energy=-145181.04044013427 energy=-145181.04428826517 free_energy=-145181.0404384687 pbc="F F F"
C        0.57453442       0.02716772      -0.15102414       0.04071189       0.02932808      -0.02090016      -0.00318478      -0.00380416      -0.01403798
C        0.92470558       1.49734708      -0.03657779      -0.01031407       0.04728772      -0.01105766      -0.00271161      -0.00513744      -0.00615154
H        2.00538839       1.51972531      -0.22704795      -0.01159507      -0.01339516      -0.03875998      -0.00340006      -0.00531013      -0.01166768
Br      -1.36262970      -0.29460273      -0.20954662      -0.00747166      -0.03212426      -0.02780399      -0.00374590      -0.00386308       0.03306724
Br       3.58993134      -0.07369517       1.65481110      -0.02839698       0.03249646       0.08052242      -0.00744307       0.04129650       0.06498197
H        0.97743327      -0.38956096      -1.07150845      -0.07810702       0.04229911       0.00661562      -0.02826738       0.00984361      -0.03263793
H        0.96614027      -0.51825700       0.70393158       0.03363794      -0.04281685       0.01050884       0.02276849      -0.01221381      -0.02960316
N        0.61221411       1.96436409       1.31618313      -0.00786544      -0.00933499       0.01639261       0.00363578      -0.01131287      -0.00340945
H        0.89386288       2.93869939       1.37413225       0.04303624      -0.03000486      -0.01488789       0.00853533      -0.01300953       0.00055491
H        1.24900452       1.45940321       1.93424367       0.04184372      -0.00656978      -0.00330847       0.00416723      -0.01719858      -0.00819522
N        0.27241662       2.27818154      -1.07351737      -0.01330296      -0.00483408      -0.05693188      -0.00723294       0.00077020       0.00071222
H        0.64033846       3.22297858      -1.04982629       0.01396206      -0.02491124       0.01406655       0.01803817      -0.00800997      -0.01760004
H       -0.71490556       2.32878475      -0.84391474      -0.01613865       0.01257984       0.04554401      -0.00115927       0.02794927       0.02398668
13
Properties=species:S:1:pos:R:3:mp2_forces:R:3:forces:R:3 R1=H R2=H R3=NH2 R4=NH2 lg=Br nu=Br rxn-id=202 mp2_energy=-145181.04044013427 energy=-145181.022700359 free_energy=-145181.0404384687 pbc="F F F"
C        0.58371335       0.03437696      -0.13274083       0.04071189       0.02932808      -0.02090016      -0.00553214      -0.00565024      -0.01661129
C        0.92764379       1.50868513      -0.03377579      -0.01031407       0.04728772      -0.01105766      -0.00601121      -0.00770281      -0.00662791
H        2.00703107       1.53681787      -0.23002859      -0.01159507      -0.01339516      -0.03875998      -0.00601964      -0.01004165      -0.00852845
Br      -1.34985769      -0.29822164      -0.26994558      -0.00747166      -0.03212426      -0.02780399      -0.00846213      -0.00562254       0.04629115
Br       3.57600244      -0.15130345       1.59545493      -0.02839698       0.03249646       0.08052242       0.01047109       0.05081756       0.07228135
H        1.03014686      -0.40463255      -1.02169382      -0.07810702       0.04229911       0.00661562      -0.03677738       0.01173589      -0.04309505
H        0.93470866      -0.49370621       0.74927585       0.03363794      -0.04281685       0.01050884       0.03234854      -0.01604904      -0.03548675
N        0.62042267       1.98278440       1.31863749      -0.00786544      -0.00933499       0.01639261      -0.00376734      -0.01403607      -0.00498671
H        0.90180406       2.95769837       1.37087412       0.04303624      -0.03000486      -0.01488789       0.00266180      -0.01627118      -0.00042320
H        1.25935223       1.48092314       1.93669008       0.04184372      -0.00656978      -0.00330847      -0.00715493      -0.02110156      -0.00690077
N        0.26633181       2.27936335      -1.07251871      -0.01330296      -0.00483408      -0.05693188      -0.00579645       0.00140260      -0.00040039
H        0.59736462       3.23710771      -1.02862455       0.01396206      -0.02491124       0.01406655       0.03389646      -0.01104292      -0.02323800
H       -0.72622927       2.29064273      -0.86126623      -0.01613865       0.01257984       0.04554401       0.00014334       0.04356195       0.02772603
13
Properties=species:S:1:pos:R:3:mp2_forces:R:3:forces:R:3 R1=H R2=H R3=NH2 R4=NH2 lg=Br nu=Br rxn-id=202 mp2_energy=-145181.04044013427 energy=-145180.99407959025 free_energy=-145181.0404384687 pbc="F F F"
C        0.58963235       0.03976586      -0.10969375       0.04071189       0.02932808      -0.02090016      -0.00734288      -0.00718585      -0.01828270
C        0.92866418       1.51785587      -0.02566158      -0.01031407       0.04728772      -0.01105766      -0.00874894      -0.00997861      -0.00822306
H        2.00773945       1.54973234      -0.22094751      -0.01159507      -0.01339516      -0.03875998      -0.00820994      -0.01495061      -0.00756722
Br      -1.33558019      -0.30572758      -0.33733280      -0.00747166      -0.03212426      -0.02780399      -0.01430989      -0.00383322       0.05681593
Br       3.57750623      -0.21671520       1.49995134      -0.02839698       0.03249646       0.08052242       0.02884805       0.05561402       0.07956068
H        1.08336788      -0.42112419      -0.96097887      -0.07810702       0.04229911       0.00661562      -0.04158099       0.01073445      -0.05089515
H        0.89213301      -0.47077339       0.79917047       0.03363794      -0.04281685       0.01050884       0.04045107      -0.01812822      -0.03740088
N        0.61928952       2.00196858       1.32395980      -0.00786544      -0.00933499       0.01639261      -0.00995986      -0.01673720      -0.00757998
H        0.90292391       2.97672147       1.37037854       0.04303624      -0.03000486      -0.01488789      -0.00426200      -0.01886156      -0.00298027
H        1.25540997       1.50367789       1.94707992       0.04184372      -0.00656978      -0.00330847      -0.01557695      -0.02396334      -0.00755915
N        0.26603828       2.27812228      -1.07089633      -0.01330296      -0.00483408      -0.05693188      -0.00503325       0.00269101      -0.00188240
H        0.57142216       3.24379275      -1.01627370       0.01396206      -0.02491124       0.01406655       0.04619875      -0.01161715      -0.02470466
H       -0.73011214       2.26323912      -0.87841716      -0.01613865       0.01257984       0.04554401      -0.00047316       0.05621627       0.03069885
13
Properties=species:S:1:pos:R:3:mp2_forces:R:3:forces:R:3 R1=H R2=H R3=NH2 R4=NH2 lg=Br nu=Br rxn-id=202 mp2_energy=-145181.04044013427 energy=-145180.95484502407 free_energy=-145181.0404384687 pbc="F F F"
C        0.59530398       0.04594516      -0.08299709       0.04071189       0.02932808      -0.02090016      -0.00956676      -0.00870503      -0.01865121
C        0.93107687       1.52812947      -0.01501598      -0.01031407       0.04728772      -0.01105766      -0.01417185      -0.01294855      -0.01065018
H        2.01001933       1.56395755      -0.20810414      -0.01159507      -0.01339516      -0.03875998      -0.01285236      -0.02665661      -0.00712758
Br      -1.31502264      -0.31703148      -0.41516914      -0.00747166      -0.03212426      -0.02780399      -0.01842870       0.00150020       0.06684366
Br       3.57894879      -0.29339898       1.38382820      -0.02839698       0.03249646       0.08052242       0.04984347       0.05934118       0.08654637
H        1.14022494      -0.43877806      -0.88752032      -0.07810702       0.04229911       0.00661562      -0.04219109       0.01009170      -0.05509798
H        0.83792266      -0.44473654       0.85331859       0.03363794      -0.04281685       0.01050884       0.05323087      -0.01792118      -0.03526470
N        0.61830104       2.02491986       1.33084770      -0.00786544      -0.00933499       0.01639261      -0.01805735      -0.02042654      -0.01128695
H        0.90059788       3.00069077       1.36834023       0.04303624      -0.03000486      -0.01488789      -0.01053359      -0.02318048      -0.00547541
H        1.25316280       1.53484768       1.96097325       0.04184372      -0.00656978      -0.00330847      -0.02559132      -0.03040040      -0.01161023
N        0.26888686       2.27704695      -1.06828289      -0.01330296      -0.00483408      -0.05693188      -0.00610867       0.00450697      -0.00447080
H        0.53965312       3.25189248      -0.99727454       0.01396206      -0.02491124       0.01406655       0.06064211      -0.00982605      -0.02810029
H       -0.73064102       2.22705094      -0.90260551      -0.01613865       0.01257984       0.04554401      -0.00621476       0.07462479       0.03434531
13
Properties=species:S:1:pos:R:3:mp2_forces:R:3:forces:R:3 R1=H R2=H R3=NH2 R4=NH2 lg=Br nu=Br rxn-id=202 mp2_energy=-145181.04044013427 energy=-145180.88594259508 free_energy=-145181.0404384687 pbc="F F F"
C        0.61086945       0.05563547      -0.05617977       0.04071189       0.02932808      -0.02090016      -0.06573530      -0.01300629      -0.02255021
C        0.94897467       1.54376374      -0.00138620      -0.01031407       0.04728772      -0.01105766      -0.06088507      -0.02776291      -0.02132355
H        2.02660542       1.60073022      -0.19664290      -0.01159507      -0.01339516      -0.03875998      -0.05347284      -0.11776361      -0.00603632
Br      -1.28683226      -0.31903285      -0.50013633      -0.00747166      -0.03212426      -0.02780399       0.01547508      -0.00232375       0.07297546
Br       3.52034794      -0.37191178       1.25309491      -0.02839698       0.03249646       0.08052242       0.17478265       0.03475944       0.13553106
H        1.20030144      -0.45590403      -0.81034469      -0.07810702       0.04229911       0.00661562      -0.04243224       0.02241429      -0.03278832
H        0.76988543      -0.42042510       0.90369877       0.03363794      -0.04281685       0.01050884       0.09982754       0.00028311      -0.03071817
N        0.63241137       2.05063606       1.34258472      -0.00786544      -0.00933499       0.01639261      -0.04310736      -0.02315183      -0.02157136
H        0.90441442       3.02996719       1.37370027       0.04303624      -0.03000486      -0.01488789      -0.00926873      -0.03397953      -0.02567761
H        1.26993561       1.57282877       1.97917795       0.04184372      -0.00656978      -0.00330847      -0.04090658      -0.04334092      -0.03646732
N        0.27540352       2.26886289      -1.06321110      -0.01330296      -0.00483408      -0.05693188      -0.02030490       0.03464557      -0.01134053
H        0.47815967       3.25804737      -0.97422949       0.01396206      -0.02491124       0.01406655       0.08223642       0.01750731      -0.01161893
H       -0.72204206       2.14733785      -0.92978777      -0.01613865       0.01257984       0.04554401      -0.03620867       0.15171912       0.01158580
13
Properties=species:S:1:pos:R:3:mp2_forces:R:3:forces:R:3 R1=H R2=H R3=NH2 R4=NH2 lg=Br nu=Br rxn-id=202 mp2_energy=-145181.04044013427 energy=-145180.66193945816 free_energy=-145181.0404384687 pbc="F F F"
C        0.66527079       0.06374443      -0.03507009       0.04071189       0.02932808      -0.02090016      -0.70651821      -0.05513835      -0.19035230
C        1.00032311       1.56326244       0.01963483      -0.01031407       0.04728772      -0.01105766      -0.23943847      -0.09267198      -0.05909951
H        2.07189725       1.69862978      -0.18320685      -0.01159507      -0.01339516      -0.03875998      -0.17496365      -0.42746995       0.01466874
Br      -1.30356407      -0.31233174      -0.54955240      -0.00747166      -0.03212426      -0.02780399       0.49482668       0.12016062       0.13105649
Br       3.37374635      -0.37577877       1.12336064      -0.02839698       0.03249646       0.08052242       0.58566791      -0.08783630       0.30021607
H        1.23144413      -0.47333977      -0.78990059      -0.07810702       0.04229911       0.00661562      -0.03612915       0.07621864       0.13088641
H        0.69127731      -0.42874488       0.92616772       0.03363794      -0.04281685       0.01050884       0.29874577       0.05525251      -0.04639359
N        0.66001770       2.06770885       1.36189909      -0.00786544      -0.00933499       0.01639261      -0.10224961      -0.02339841      -0.03473962
H        0.90667130       3.05381746       1.39926852       0.04303624      -0.03000486      -0.01488789       0.00876048      -0.05225055      -0.06100905
H        1.28980826       1.60318944       2.01557106       0.04184372      -0.00656978      -0.00330847      -0.03440212      -0.06033887      -0.10273242
N        0.29596091       2.23344707      -1.05474956      -0.01330296      -0.00483408      -0.05693188      -0.05803695       0.13374402      -0.04305028
H        0.43428448       3.23310765      -0.98546483       0.01396206      -0.02491124       0.01406655       0.04849687       0.12002160       0.01746646
H       -0.68870294       2.03382383      -0.92761918      -0.01613865       0.01257984       0.04554401      -0.08475954       0.29370702      -0.05691739
13
Properties=species:S:1:pos:R:3:mp2_forces:R:3:forces:R:3 R1=H R2=H R3=NH2 R4=NH2 lg=Br nu=Br rxn-id=202 mp2_energy=-145181.04044013427 energy=-145180.34534604393 free_energy=-145181.0404384687 pbc="F F F"
C        0.76033535       0.07084802      -0.00951939       0.04071189       0.02932808      -0.02090016      -1.35055528      -0.05804974      -0.40624713
C        1.03250529       1.57548133       0.02791531      -0.01031407       0.04728772      -0.01105766      -0.25127313      -0.09722545      -0.06223867
H        2.09528747       1.75602961      -0.18456101      -0.01159507      -0.01339516      -0.03875998      -0.15039173      -0.40995084       0.02418542
Br      -1.37016153      -0.32785309      -0.56741533      -0.00747166      -0.03212426      -0.02780399       0.79791714       0.20320684       0.17517529
Br       3.29479928      -0.36281269       1.08177330      -0.02839698       0.03249646       0.08052242       0.67529573      -0.12563085       0.32676538
H        1.23649262      -0.48314664      -0.80720536      -0.07810702       0.04229911       0.00661562       0.06364784       0.05317923       0.17101930
H        0.65135571      -0.43677638       0.93248687       0.03363794      -0.04281685       0.01050884       0.37837701       0.02652600       0.00675578
N        0.67321982       2.07174396       1.36649056      -0.00786544      -0.00933499       0.01639261      -0.08056443      -0.02864189      -0.01668400
H        0.90565423       3.06027818       1.40770614       0.04303624      -0.03000486      -0.01488789       0.01941739      -0.02532611      -0.04085374
H        1.29400248       1.61078650       2.03001350       0.04184372      -0.00656978      -0.00330847      -0.01622442      -0.03865322      -0.08783986
N        0.30331100       2.21441767      -1.04890728      -0.01330296      -0.00483408      -0.05693188      -0.04024471       0.14689760      -0.05006097
H        0.42890250       3.21656136      -0.98941267       0.01396206      -0.02491124       0.01406655       0.00539876       0.12206452       0.00062263
H       -0.67726962       1.99497796      -0.91902628      -0.01613865       0.01257984       0.04554401      -0.05080015       0.23160390      -0.04059942
13
Properties=species:S:1:pos:R:3:mp2_forces:R:3:forces:R:3 R1=H R2=H R3=NH2 R4=NH2 lg=Br nu=Br rxn-id=202 mp2_energy=-145181.04044013427 energy=-145180.1108387655 free_energy=-145181.0404384687 pbc="F F F"
C        0.85148752       0.07473368       0.01839904       0.04071189       0.02932808      -0.02090016      -1.04738844      -0.00460960      -0.33190084
C        1.04931523       1.58224049       0.03216735      -0.01031407       0.04728772      -0.01105766      -0.14606494      -0.05138229      -0.03712094
H        2.10529687       1.78375260      -0.18615875      -0.01159507      -0.01339516      -0.03875998      -0.08007373      -0.24354578       0.01843261
Br      -1.42366473      -0.34162626      -0.57965013      -0.00747166      -0.03212426      -0.02780399       0.54310972       0.13706826       0.11842215
Br       3.24882115      -0.35455901       1.05928916      -0.02839698       0.03249646       0.08052242       0.46535922      -0.08919591       0.22328900
H        1.23257653      -0.48664626      -0.81859781      -0.07810702       0.04229911       0.00661562       0.09708253       0.00800194       0.07829755
H        0.62563995      -0.43861355       0.93198158       0.03363794      -0.04281685       0.01050884       0.25137529      -0.01028092       0.06158006
N        0.67890404       2.07303447       1.36806045      -0.00786544      -0.00933499       0.01639261      -0.04381685      -0.01230084      -0.00882414
H        0.90480757       3.06258483       1.41041158       0.04303624      -0.03000486      -0.01488789       0.01367243      -0.01249140      -0.02085948
H        1.29485701       1.61375044       2.03574648       0.04184372      -0.00656978      -0.00330847      -0.00396325      -0.02063980      -0.04704874
N        0.30593440       2.20434665      -1.04548971      -0.01330296      -0.00483408      -0.05693188      -0.02347887       0.09597428      -0.03019220
H        0.42847824       3.20824380      -0.98957412       0.01396206      -0.02491124       0.01406655      -0.00336954       0.07581014      -0.00609619
H       -0.67401918       1.97929391      -0.91624676      -0.01613865       0.01257984       0.04554401      -0.02244358       0.12759192      -0.01797883
13
Properties=species:S:1:pos:R:3:mp2_forces:R:3:forces:R:3 R1=H R2=H R3=NH2 R4=NH2 lg=Br nu=Br rxn-id=202 mp2_energy=-145181.04044013427 energy=-145180.00909465112 free_energy=-145181.0404384687 pbc="F F F"
C        0.93168450       0.07505697       0.04469398       0.04071189       0.02932808      -0.02090016      -0.28155969       0.00306964      -0.09195624
C        1.06040901       1.58624531       0.03504722      -0.01031407       0.04728772      -0.01105766      -0.03924754      -0.01132088      -0.00850376
H        2.11123321       1.80246904      -0.18751679      -0.01159507      -0.01339516      -0.03875998      -0.02177653      -0.06318883       0.00584973
Br      -1.46482778      -0.35216169      -0.58902011      -0.00747166      -0.03212426      -0.02780399       0.14694519       0.03541542       0.02964506
Br       3.21270939      -0.34777924       1.04168313      -0.02839698       0.03249646       0.08052242       0.12450172      -0.02403525       0.05823260
H        1.22550896      -0.48725779      -0.82467413      -0.07810702       0.04229911       0.00661562       0.03061712      -0.00055288       0.01398244
H        0.60625406      -0.43788226       0.92703012       0.03363794      -0.04281685       0.01050884       0.06085139      -0.00968383       0.02563363
N        0.68233128       2.07378883       1.36900438      -0.00786544      -0.00933499       0.01639261      -0.01142256      -0.00120058      -0.00115818
H        0.90417551       3.06383369       1.41195637       0.04303624      -0.03000486      -0.01488789       0.00693837      -0.00239700      -0.00557529
H        1.29500053       1.61551310       2.03933663       0.04184372      -0.00656978      -0.00330847      -0.00088211      -0.00438771      -0.01120682
N        0.30754728       2.19678484      -1.04312112      -0.01330296      -0.00483408      -0.05693188      -0.00805830       0.02490473      -0.00716310
H        0.42885445       3.20232672      -0.98930515       0.01396206      -0.02491124       0.01406655       0.00050914       0.01935116      -0.00472950
H       -0.67244580       1.96959827      -0.91477616      -0.01613865       0.01257984       0.04554401      -0.00741619       0.03402601      -0.00305056
13
Properties=species:S:1:pos:R:3:mp2_forces:R:3:forces:R:3 R1=H R2=H R3=NH2 R4=NH2 lg=Br nu=Br rxn-id=202 mp2_energy=-145181.04044013427 energy=-145180.0310328324 free_energy=-145181.0404384687 pbc="F F F"
C        1.01226347       0.07261238       0.07253437       0.04071189       0.02932808      -0.02090016       0.55743162      -0.01774860       0.19696977
C        1.07049890       1.58859361       0.03787367      -0.01031407       0.04728772      -0.01105766       0.06740400       0.01583853       0.02086390
H        2.11622189       1.81985349      -0.18911197      -0.01159507      -0.01339516      -0.03875998       0.03177840       0.12029900      -0.01033994
Br      -1.50325285      -0.36176859      -0.59803128      -0.00747166      -0.03212426      -0.02780399      -0.25814322      -0.06604379      -0.06405246
Br       3.17489406      -0.34075960       1.02267835      -0.02839698       0.03249646       0.08052242      -0.26618226       0.04957064      -0.13728671
H        1.21681466      -0.48531630      -0.82558496      -0.07810702       0.04229911       0.00661562      -0.05748207       0.01488021      -0.00544631
H        0.58969572      -0.43472543       0.91751578       0.03363794      -0.04281685       0.01050884      -0.11652541       0.01898838      -0.06664161
N        0.68528604       2.07443757       1.36980051      -0.00786544      -0.00933499       0.01639261       0.01997780       0.00533589       0.00737740
H        0.90360104       3.06480337       1.41325588       0.04303624      -0.03000486      -0.01488789       0.00074743       0.00810631       0.00849669
H        1.29471236       1.61683794       2.04266103       0.04184372      -0.00656978      -0.00330847      -0.00354790       0.00986939       0.02384216
N        0.30929019       2.18887630      -1.04104574      -0.01330296      -0.00483408      -0.05693188       0.01121607      -0.05575490       0.01482309
H        0.42947183       3.19618527      -0.98857387       0.01396206      -0.02491124       0.01406655       0.00707346      -0.04538725       0.00145487
H       -0.67106272       1.96090579      -0.91363339      -0.01613865       0.01257984       0.04554401       0.00625208      -0.05795382       0.00993916
13
Properties=species:S:1:pos:R:3:mp2_forces:R:3:forces:R:3 R1=H R2=H R3=NH2 R4=NH2 lg=Br nu=Br rxn-id=202 mp2_energy=-145181.04044013427 energy=-145180.1637435642 free_energy=-145181.0404384687 pbc="F F F"
C        1.09107981       0.06836365       0.10061451       0.04071189       0.02932808      -0.02090016       1.05556923      -0.05798883       0.38583707
C        1.08250402       1.58999001       0.04119217      -0.01031407       0.04728772      -0.01105766       0.15804308       0.01854295       0.04487015
H        2.12223066       1.84002797      -0.19089516      -0.01159507      -0.01339516      -0.03875998       0.07773848       0.27085441      -0.02314082
Br      -1.54391750      -0.37200885      -0.60756472      -0.00747166      -0.03212426      -0.02780399      -0.53823383      -0.13697494      -0.12808155
Br       3.13306418      -0.33377715       1.00101290      -0.02839698       0.03249646       0.08052242      -0.56451488       0.09620637      -0.29618334
H        1.20908302      -0.48071906      -0.82192416      -0.07810702       0.04229911       0.00661562      -0.10158927       0.06196104       0.04720071
H        0.57516347      -0.42842273       0.90366595       0.03363794      -0.04281685       0.01050884      -0.19529120       0.08245079      -0.18929573
N        0.68902648       2.07509954       1.37066306      -0.00786544      -0.00933499       0.01639261       0.05013653       0.00522569       0.01478785
H        0.90293715       3.06593374       1.41490527       0.04303624      -0.03000486      -0.01488789      -0.00391816       0.01842238       0.02166522
H        1.29429443       1.61833917       2.04700979       0.04184372      -0.00656978      -0.00330847      -0.00954728       0.02122599       0.05797111
N        0.31195274       2.17923687      -1.03874972      -0.01330296      -0.00483408      -0.05693188       0.03782707      -0.12841088       0.03090842
H        0.42976177       3.18838855      -0.98759410       0.01396206      -0.02491124       0.01406655       0.00809507      -0.10937891       0.00844201
H       -0.66874566       1.95008411      -0.91199743      -0.01613865       0.01257984       0.04554401       0.02568515      -0.14213606       0.02501889
13
Properties=species:S:1:pos:R:3:mp2_forces:R:3:forces:R:3 R1=H R2=H R3=NH2 R4=NH2 lg=Br nu=Br rxn-id=202 mp2_energy=-145181.04044013427 energy=-145180.38366120413 free_energy=-145181.0404384687 pbc="F F F"
C        1.17488484       0.06509901       0.13039831       0.04071189       0.02932808      -0.02090016       0.88714467      -0.03828583       0.30211286
C        1.10285120       1.59188513       0.04624418      -0.01031407       0.04728772      -0.01105766       0.20768693       0.01916499       0.05639956
H        2.13319520       1.87291169      -0.19234378      -0.01159507      -0.01339516      -0.03875998       0.11344176       0.34507302      -0.01605463
Br      -1.60381452      -0.38727356      -0.62049763      -0.00747166      -0.03212426      -0.02780399      -0.62477828      -0.16408424      -0.14014925
Br       3.08122091      -0.32874170       0.97246672      -0.02839698       0.03249646       0.08052242      -0.54701359       0.05911823      -0.30273374
H        1.20435307      -0.46964897      -0.81267340      -0.07810702       0.04229911       0.00661562      -0.05264951       0.12007866       0.10567086
H        0.56025328      -0.41342873       0.88013900       0.03363794      -0.04281685       0.01050884      -0.16229075       0.15191455      -0.24280031
N        0.69613025       2.07602918       1.37208559      -0.00786544      -0.00933499       0.01639261       0.07735339       0.00009584       0.01969919
H        0.90186337       3.06796993       1.41855144       0.04303624      -0.03000486      -0.01488789      -0.00401989       0.02893103       0.03635601
H        1.29326299       1.62109908       2.05590215       0.04184372      -0.00656978      -0.00330847      -0.01504634       0.03313770       0.09072203
N        0.31787464       2.16245132      -1.03519843      -0.01330296      -0.00483408      -0.05693188       0.06493740      -0.17490769       0.03753865
H        0.42886989       3.17363424      -0.98712174       0.01396206      -0.02491124       0.01406655      -0.00432434      -0.15830180       0.00459492
H       -0.66251053       1.92854920      -0.90761405      -0.01613865       0.01257984       0.04554401       0.05955855      -0.22193446       0.04864384
13
Properties=species:S:1:pos:R:3:mp2_forces:R:3:forces:R:3 R1=H R2=H R3=NH2 R4=NH2 lg=Br nu=Br rxn-id=202 mp2_energy=-145181.04044013427 energy=-145180.61261991103 free_energy=-145181.0404384687 pbc="F F F"
C        1.24290843       0.07956559       0.14385903       0.04071189       0.02932808      -0.02090016       0.20995510       0.04765830       0.05396778
C        1.14725012       1.60444250       0.05679060      -0.01031407       0.04728772      -0.01105766       0.14340402       0.04075743       0.03437678
H        2.16389185       1.93814724      -0.18336928      -0.01159507      -0.01339516      -0.03875998       0.09566267       0.20837510       0.02722570
Br      -1.73175912      -0.41773837      -0.63944133      -0.00747166      -0.03212426      -0.02780399      -0.39413012      -0.10206490      -0.06907602