16
Properties=species:S:1:pos:R:3:mp2_forces:R:3:forces:R:3 R1=CH3 R2=CN R3=CH3 R4=H lg=Cl nu=F rxn-id=2087 mp2_energy=-22010.165436407504 energy=-22010.165436407504 free_energy=-22010.165436407504 pbc="F F F"
C        0.48740059      -0.06698939      -0.02595406       0.01478225       0.01545742      -0.04336969       0.01478225       0.01545742      -0.04336969
C        0.66240707       1.44840276      -0.03823986      -0.01091377       0.00121525       0.01381974      -0.01091377       0.00121525       0.01381974
H        1.72935036       1.56690840      -0.25447928      -0.01638316      -0.04284895      -0.00765147      -0.01638316      -0.04284895      -0.00765147
Cl      -1.32852052      -0.42467162      -0.07930998      -0.03591940      -0.02480279       0.02184809      -0.03591940      -0.02480279       0.02184809
F        3.07458132       0.38597833       0.34954172       0.06022108       0.02323755      -0.01636898       0.06022108       0.02323755      -0.01636898
H        0.02658932       1.83858284      -0.84161926       0.01844811       0.02922700       0.00336407       0.01844811       0.02922700       0.00336407
C        1.12638391      -0.70955082      -1.24213738       0.00228916      -0.02118794      -0.02427051       0.00228916      -0.02118794      -0.02427051
H        0.71823677      -0.24811714      -2.14527524       0.01506375       0.00721603      -0.03056109       0.01506375       0.00721603      -0.03056109
H        2.19274401      -0.49586151      -1.10484220      -0.00730691       0.01919208       0.03309842      -0.00730691       0.01919208       0.03309842
H        0.93001725      -1.78296857      -1.27016222      -0.01767594      -0.03519986       0.01228168      -0.01767594      -0.03519986       0.01228168
C        0.95567082      -0.69100966       1.21535644       0.01128518       0.02230404      -0.02075914       0.01128518       0.02230404      -0.02075914
N        1.11431184      -1.26676557       2.22782245      -0.00580063      -0.02032335       0.02848290      -0.00580063      -0.02032335       0.02848290
C        0.35840986       2.10611009       1.29727947      -0.01738842       0.01777635       0.02447279      -0.01738842       0.01777635       0.02447279
H       -0.59722654       1.78119893       1.71731581      -0.03262327      -0.01189356       0.00159514      -0.03262327      -0.01189356       0.00159514
H        1.15868476       1.85245206       1.99450332      -0.00188243      -0.01421933       0.00415244      -0.00188243      -0.01421933       0.00415244
H        0.32671466       3.19431620       1.19193861       0.02380439       0.03485004      -0.00013439       0.02380439       0.03485004      -0.00013439
16
Properties=species:S:1:pos:R:3:mp2_forces:R:3:forces:R:3 R1=CH3 R2=CN R3=CH3 R4=H lg=Cl nu=F rxn-id=2087 mp2_energy=-22010.165436407504 energy=-22010.164617501905 free_energy=-22010.165436407504 pbc="F F F"
C        0.47694090      -0.06220366      -0.03961311       0.01478225       0.01545742      -0.04336969      -0.00703237      -0.00239297       0.00183175
C        0.63993218       1.45560467      -0.05126299      -0.01091377       0.00121525       0.01381974       0.00069869      -0.00340287       0.00237071
H        1.69682035       1.58479750      -0.29869850      -0.01638316      -0.04284895      -0.00765147       0.00603308      -0.01339505       0.01212914
Cl      -1.33763116      -0.43553284      -0.10972444      -0.03591940      -0.02480279       0.02184809      -0.00567219       0.00009941       0.00490749
F        3.04186584       0.41345487       0.39573506       0.06022108       0.02323755      -0.01636898       0.02303207       0.02067895      -0.03147800
H       -0.02121121       1.85475035      -0.82928092       0.01844811       0.02922700       0.00336407       0.00929393      -0.00134817      -0.00405193
C        1.13927440      -0.71182706      -1.24054453       0.00228916      -0.02118794      -0.02427051      -0.00325586      -0.00223507       0.00385071
H        0.72190328      -0.29334728      -2.16076101       0.01506375       0.00721603      -0.03056109       0.01730979       0.01820103       0.00333964
H        2.19648876      -0.45962909      -1.09953400      -0.00730691       0.01919208       0.03309842      -0.00028327      -0.01703932       0.02160687
H        0.98444767      -1.79326930      -1.23443556      -0.01767594      -0.03519986       0.01228168      -0.02456756       0.00022623      -0.01246522
C        0.92903354      -0.68334102       1.21047356       0.01128518       0.02230404      -0.02075914      -0.00176866      -0.00152830      -0.00000001
N        1.05522018      -1.27000279       2.22182106      -0.00580063      -0.02032335       0.02848290       0.02103627       0.00405805       0.00136622
C        0.38718484       2.09968718       1.30245590      -0.01738842       0.01777635       0.02447279      -0.00751192      -0.00121721      -0.00058446
H       -0.55006571       1.76779105       1.75868867      -0.03262327      -0.01189356       0.00159514      -0.01553805       0.00841117      -0.00950531
H        1.21983063       1.83097727       1.95461211      -0.00188243      -0.01421933       0.00415244      -0.01644526      -0.00803725       0.00833399
H        0.35572100       3.19010546       1.21180705       0.02380439       0.03485004      -0.00013439       0.00467132      -0.00107862      -0.00165159
16
Properties=species:S:1:pos:R:3:mp2_forces:R:3:forces:R:3 R1=CH3 R2=CN R3=CH3 R4=H lg=Cl nu=F rxn-id=2087 mp2_energy=-22010.165436407504 energy=-22010.148347086837 free_energy=-22010.165436407504 pbc="F F F"
C        0.49154255      -0.05726649      -0.04414646       0.01478225       0.01545742      -0.04336969      -0.01479550      -0.00394085       0.00148672
C        0.63093117       1.46427870      -0.06065835      -0.01091377       0.00121525       0.01381974      -0.00243016      -0.00564688       0.00098641
H        1.67047560       1.62716900      -0.34468669      -0.01638316      -0.04284895      -0.00765147       0.00686405      -0.02396998       0.01675670
Cl      -1.32476251      -0.44243842      -0.12510432      -0.03591940      -0.02480279       0.02184809      -0.01226422      -0.00227191       0.00799819
F        2.97861375       0.37935029       0.48165094       0.06022108       0.02323755      -0.01636898       0.03162242       0.03318450      -0.03630154
H       -0.06283516       1.85516603      -0.81412603       0.01844811       0.02922700       0.00336407       0.01129828      -0.00011810      -0.00893741
C        1.15071701      -0.70865112      -1.24655516       0.00228916      -0.02118794      -0.02427051      -0.00564001      -0.00146886       0.00588752
H        0.70222806      -0.32424569      -2.16707050       0.01506375       0.00721603      -0.03056109       0.02864757       0.03056138       0.00116915
H        2.20363656      -0.43676879      -1.13652035      -0.00730691       0.01919208       0.03309842      -0.00098501      -0.02149741       0.04414866
H        1.02726747      -1.79358438      -1.21396318      -0.01767594      -0.03519986       0.01228168      -0.03635077       0.00036800      -0.01996533
C        0.93441916      -0.67602811       1.21054813       0.01128518       0.02230404      -0.02075914      -0.00343544      -0.00175105      -0.00205065
N        1.00712011      -1.27471392       2.22104948      -0.00580063      -0.02032335       0.02848290       0.03308342       0.00445874       0.00077510
C        0.40999579       2.09974829       1.30306623      -0.01738842       0.01777635       0.02447279      -0.00898898      -0.00277371      -0.00252448
H       -0.50990263       1.75219880       1.78186581      -0.03262327      -0.01189356       0.00159514      -0.01683908       0.00947208      -0.00848511
H        1.26469313       1.83351017       1.92653412      -0.00188243      -0.01421933       0.00415244      -0.01628792      -0.01204494       0.00330259
H        0.36161543       3.19029094       1.21985465       0.02380439       0.03485004      -0.00013439       0.00650134      -0.00256100      -0.00424652
16
Properties=species:S:1:pos:R:3:mp2_forces:R:3:forces:R:3 R1=CH3 R2=CN R3=CH3 R4=H lg=Cl nu=F rxn-id=2087 mp2_energy=-22010.165436407504 energy=-22010.121564715588 free_energy=-22010.165436407504 pbc="F F F"
C        0.51662641      -0.05106441      -0.04645134       0.01478225       0.01545742      -0.04336969      -0.04130599      -0.00612666      -0.00370094
C        0.63055392       1.47459579      -0.06378214      -0.01091377       0.00121525       0.01381974      -0.01253235      -0.01030550      -0.00493984
H        1.64966580       1.67843269      -0.38582171      -0.01638316      -0.04284895      -0.00765147       0.00926799      -0.05654590       0.02615487
Cl      -1.30497691      -0.44532679      -0.14275339      -0.03591940      -0.02480279       0.02184809      -0.02496486      -0.00807108       0.02198742
F        2.91722190       0.32722601       0.55235554       0.06022108       0.02323755      -0.01636898       0.05181040       0.04318991      -0.02268755
H       -0.09544846       1.85363859      -0.79236956       0.01844811       0.02922700       0.00336407       0.01759586       0.01316137      -0.02411877
C        1.16363779      -0.70718418      -1.25492922       0.00228916      -0.02118794      -0.02427051      -0.01602938       0.00381919       0.00726926
H        0.66618676      -0.36805195      -2.16799224       0.01506375       0.00721603      -0.03056109       0.04269562       0.04036249      -0.01425095
H        2.21183502      -0.41311731      -1.20513479      -0.00730691       0.01919208       0.03309842      -0.01044580      -0.00776707       0.09283459
H        1.07822136      -1.79408998      -1.18703665      -0.01767594      -0.03519986       0.01228168      -0.04490489       0.00315958      -0.02575152
C        0.94469550      -0.66936260       1.21371030       0.01128518       0.02230404      -0.02075914       0.00476633       0.00575889      -0.01255765
N        0.95264857      -1.27689236       2.22298990      -0.00580063      -0.02032335       0.02848290       0.05510333       0.01144061      -0.00800767
C        0.42818509       2.10290694       1.30712219      -0.01738842       0.01777635       0.02447279      -0.01162414      -0.00803685      -0.00772530
H       -0.48052249       1.74067914       1.79566613      -0.03262327      -0.01189356       0.00159514      -0.01656283       0.00901664      -0.00391664
H        1.29425630       1.84235170       1.91668635      -0.00188243      -0.01421933       0.00415244      -0.01351137      -0.02557387      -0.01324085
H        0.36296893       3.19327403       1.22947899       0.02380439       0.03485004      -0.00013439       0.01064208      -0.00748175      -0.00734845
16
Properties=species:S:1:pos:R:3:mp2_forces:R:3:forces:R:3 R1=CH3 R2=CN R3=CH3 R4=H lg=Cl nu=F rxn-id=2087 mp2_energy=-22010.165436407504 energy=-22010.075408970362 free_energy=-22010.165436407504 pbc="F F F"
C        0.55478259      -0.04395942      -0.04432649       0.01478225       0.01545742      -0.04336969      -0.16664905      -0.02312197      -0.03028758
C        0.64085931       1.48610267      -0.05944270      -0.01091377       0.00121525       0.01381974      -0.04139504      -0.02391155      -0.01732912
H        1.63742125       1.73877214      -0.41508717      -0.01638316      -0.04284895      -0.00765147       0.01424520      -0.14216850       0.04317197
Cl      -1.28556927      -0.43974889      -0.17061244      -0.03591940      -0.02480279       0.02184809       0.01401474      -0.00716678       0.05413634
F        2.86769529       0.28722676       0.57311968       0.06022108       0.02323755      -0.01636898       0.13415907       0.03898230       0.04918479
H       -0.11663585       1.84377493      -0.76534191       0.01844811       0.02922700       0.00336407       0.02117718       0.06630020      -0.04764952
C        1.18082953      -0.71182425      -1.26073276       0.00228916      -0.02118794      -0.02427051      -0.05184495       0.01173987       0.00417145
H        0.62959138      -0.40999248      -2.15517780       0.01506375       0.00721603      -0.03056109       0.05478393       0.02698243      -0.06343195
H        2.22561094      -0.41070711      -1.29205693      -0.00730691       0.01919208       0.03309842      -0.04539676       0.04331088       0.18568606
H        1.11759100      -1.79759312      -1.15959201      -0.01767594      -0.03519986       0.01228168      -0.04250998       0.00568205      -0.03238184
C        0.94245200      -0.67052660       1.22402300       0.01128518       0.02230404      -0.02075914       0.05991472       0.03808661      -0.04503471
N        0.90067274      -1.28051765       2.23221579      -0.00580063      -0.02032335       0.02848290       0.07724322       0.03849151      -0.04268141
C        0.44004445       2.10843890       1.31547340      -0.01738842       0.01777635       0.02447279      -0.01706857      -0.01915237      -0.01518542
H       -0.46432396       1.73139090       1.80007936      -0.03262327      -0.01189356       0.00159514      -0.01643716       0.00988722       0.01051173
H        1.30714605       1.85885848       1.92788576      -0.00188243      -0.01421933       0.00415244      -0.00768321      -0.04624411      -0.03942022
H        0.35758803       3.19832005       1.24131155       0.02380439       0.03485004      -0.00013439       0.01344665      -0.01769777      -0.01346054
16
Properties=species:S:1:pos:R:3:mp2_forces:R:3:forces:R:3 R1=CH3 R2=CN R3=CH3 R4=H lg=Cl nu=F rxn-id=2087 mp2_energy=-22010.165436407504 energy=-22009.941912296006 free_energy=-22010.165436407504 pbc="F F F"
C        0.64026867      -0.03133078      -0.02878703       0.01478225       0.01545742      -0.04336969      -0.67062428      -0.11561957      -0.11216531
C        0.66215724       1.49891285      -0.05140500      -0.01091377       0.00121525       0.01381974      -0.07593181      -0.04648065      -0.02726540
H        1.62935598       1.81416068      -0.44002781      -0.01638316      -0.04284895      -0.00765147       0.01510611      -0.22399058       0.05579300
Cl      -1.29322225      -0.43808579      -0.19503343      -0.03591940      -0.02480279       0.02184809       0.31530595       0.05838408       0.06627053
F        2.80153286       0.26892658       0.55213428       0.06022108       0.02323755      -0.01636898       0.33702141       0.03707419       0.15826981
H       -0.12860118       1.81038899      -0.73995243       0.01844811       0.02922700       0.00336407       0.00679958       0.14605617      -0.05348858
C        1.20679897      -0.71768011      -1.26270383       0.00228916      -0.02118794      -0.02427051      -0.09754299       0.00902198       0.00210844
H        0.60549599      -0.41919276      -2.12384512       0.01506375       0.00721603      -0.03056109       0.05071832      -0.01412814      -0.12044040
H        2.25087773      -0.43949404      -1.38479135      -0.00730691       0.01919208       0.03309842      -0.08157200       0.09095320       0.26020113
H        1.12907287      -1.79993970      -1.14494559      -0.01767594      -0.03519986       0.01228168      -0.02140120      -0.00787292      -0.03601525
C        0.91971472      -0.68658820       1.24647047       0.01128518       0.02230404      -0.02075914       0.18303078       0.08718885      -0.07115916
N        0.86287371      -1.29591360       2.25413340      -0.00580063      -0.02032335       0.02848290       0.06316603       0.06173548      -0.07733066
C        0.44790207       2.11646439       1.32246780      -0.01738842       0.01777635       0.02447279      -0.01843962      -0.02570643      -0.01501020
H       -0.45875851       1.72533497       1.79026457      -0.03262327      -0.01189356       0.00159514      -0.01505078       0.01480717       0.02965724
H        1.30757784       1.87657608       1.94861119      -0.00188243      -0.01421933       0.00415244       0.00028011      -0.05040048      -0.04880604
H        0.35270875       3.20547577       1.24914823       0.02380439       0.03485004      -0.00013439       0.00913439      -0.02102236      -0.01061916
16
Properties=species:S:1:pos:R:3:mp2_forces:R:3:forces:R:3 R1=CH3 R2=CN R3=CH3 R4=H lg=Cl nu=F rxn-id=2087 mp2_energy=-22010.165436407504 energy=-22009.786526140884 free_energy=-22010.165436407504 pbc="F F F"
C        0.75879729      -0.01079115      -0.00885291       0.01478225       0.01545742      -0.04336969      -0.32611127      -0.05587431      -0.05447565
C        0.67522403       1.50718039      -0.04664061      -0.01091377       0.00121525       0.01381974      -0.02611554      -0.01482919      -0.00951686
H        1.62625777       1.85362341      -0.45016801      -0.01638316      -0.04284895      -0.00765147       0.00575993      -0.07610245       0.01953624
Cl      -1.34924675      -0.44833433      -0.20811767      -0.03591940      -0.02480279       0.02184809       0.14927819       0.03090023       0.01743850
F        2.74206173       0.26455912       0.52194024       0.06022108       0.02323755      -0.01636898       0.14704442       0.02425653       0.05682819
H       -0.13060717       1.78463769      -0.72996659       0.01844811       0.02922700       0.00336407      -0.00103297       0.05561710      -0.01493408
C        1.22427229      -0.71944803      -1.26267754       0.00228916      -0.02118794      -0.02427051      -0.03206813       0.00078067       0.00076770
H        0.59754951      -0.41619329      -2.10250320       0.01506375       0.00721603      -0.03056109       0.02191883      -0.00419781      -0.04382054
H        2.26575582      -0.45609906      -1.42938117      -0.00730691       0.01919208       0.03309842      -0.02311199       0.02445762       0.09444091
H        1.13213427      -1.79872552      -1.13821860      -0.01767594      -0.03519986       0.01228168      -0.01385010      -0.00499885      -0.01303662
C        0.88676890      -0.70164170       1.25903064       0.01128518       0.02230404      -0.02075914       0.08489507       0.03551933      -0.02083895
N        0.85134527      -1.30617028       2.26873210      -0.00580063      -0.02032335       0.02848290       0.02099497       0.02242942      -0.01935640
C        0.45144422       2.12037743       1.32519411      -0.01738842       0.01777635       0.02447279      -0.00554669      -0.01052176      -0.00419290
H       -0.45584836       1.72241455       1.78509963      -0.03262327      -0.01189356       0.00159514      -0.00655215       0.00426993       0.00752405
H        1.30777673       1.88417603       1.95690462      -0.00188243      -0.01421933       0.00415244      -0.00129898      -0.02284843      -0.01554213
H        0.35206993       3.20845005       1.25136331       0.02380439       0.03485004      -0.00013439       0.00579643      -0.00885803      -0.00082147
16
Properties=species:S:1:pos:R:3:mp2_forces:R:3:forces:R:3 R1=CH3 R2=CN R3=CH3 R4=H lg=Cl nu=F rxn-id=2087 mp2_energy=-22010.165436407504 energy=-22009.893047022313 free_energy=-22010.165436407504 pbc="F F F"
C        0.90548917       0.01466840       0.01618468       0.01478225       0.01545742      -0.04336969       1.33894759       0.23370838       0.22848420
C        0.68217873       1.51165328      -0.04409472      -0.01091377       0.00121525       0.01381974       0.06156193       0.04168345       0.02266089
H        1.62295828       1.87740771      -0.45655846      -0.01638316      -0.04284895      -0.00765147      -0.03276162       0.21881047      -0.05958015
Cl      -1.41165639      -0.46231703      -0.21340799      -0.03591940      -0.02480279       0.02184809      -0.56677897      -0.12670419      -0.05419578
F        2.68213565       0.25829615       0.49595029       0.06022108       0.02323755      -0.01636898      -0.54565784      -0.04666690      -0.24757281
H       -0.13060179       1.76502940      -0.72642128       0.01844811       0.02922700       0.00336407      -0.00415923      -0.17916017       0.03440639
C        1.23343246      -0.71946301      -1.26183978       0.00228916      -0.02118794      -0.02427051       0.08418638      -0.00155796       0.00935942
H        0.59348932      -0.41008785      -2.08834914       0.01506375       0.00721603      -0.03056109      -0.03069060       0.06177346       0.12904571
H        2.27286184      -0.46738968      -1.45527198      -0.00730691       0.01919208       0.03309842       0.06844175      -0.11190836      -0.22943589
H        1.13059930      -1.79657848      -1.13409664      -0.01767594      -0.03519986       0.01228168      -0.02472196       0.01869692       0.03813667
C        0.85092219      -0.71271980       1.26275007       0.01128518       0.02230404      -0.02075914      -0.32550282      -0.09971731       0.03714111
N        0.84847924      -1.31054837       2.27524092      -0.00580063      -0.02032335       0.02848290      -0.02459371      -0.03397740       0.06255032
C        0.45211390       2.12202280       1.32602922      -0.01738842       0.01777635       0.02447279       0.00602016       0.01152486       0.00794226
H       -0.45516115       1.72096228       1.78222594      -0.03262327      -0.01189356       0.00159514       0.00473148      -0.01444499      -0.02791296
H        1.30639052       1.88776182       1.96151937      -0.00188243      -0.01421933       0.00415244      -0.01438942       0.02394153       0.04177362
H        0.35212422       3.20931773       1.25187785       0.02380439       0.03485004      -0.00013439       0.00536686       0.00399820       0.00719699
16
Properties=species:S:1:pos:R:3:mp2_forces:R:3:forces:R:3 R1=CH3 R2=CN R3=CH3 R4=H lg=Cl nu=F rxn-id=2087 mp2_energy=-22010.165436407504 energy=-22010.33816472142 free_energy=-22010.165436407504 pbc="F F F"
C        1.03998830       0.03646145       0.04239464       0.01478225       0.01545742      -0.04336969       2.32505626       0.37921366       0.45110475
C        0.69046199       1.51255283      -0.04179654      -0.01091377       0.00121525       0.01381974       0.14120929       0.01645477       0.03905587
H        1.61912675       1.90217525      -0.46391022      -0.01638316      -0.04284895      -0.00765147      -0.06903203       0.43006664      -0.12841505
Cl      -1.46856075      -0.47585993      -0.21730402      -0.03591940      -0.02480279       0.02184809      -0.98084116      -0.23339399      -0.07278996
F        2.62679135       0.25182443       0.47136991       0.06022108       0.02323755      -0.01636898      -0.95366144      -0.10211798      -0.43346505
H       -0.12970191       1.74305986      -0.72281322       0.01844811       0.02922700       0.00336407       0.01117940      -0.37993732       0.06433443
C        1.24275546      -0.71764670      -1.25782740       0.00228916      -0.02118794      -0.02427051       0.16143611       0.02998118       0.07085161
H        0.58949714      -0.40261237      -2.07204254       0.01506375       0.00721603      -0.03056109      -0.06292262       0.13569920       0.28153555
H        2.27971169      -0.47893290      -1.48265779      -0.00730691       0.01919208       0.03309842       0.12182931      -0.20890274      -0.46701015
H        1.12999531      -1.79377404      -1.12872853      -0.01767594      -0.03519986       0.01228168      -0.02190995       0.04762826       0.09292214
C        0.81506360      -0.72078795       1.26181520       0.01128518       0.02230404      -0.02075914      -0.61584123      -0.14301874      -0.00356629
N        0.84424730      -1.31266015       2.27735650      -0.00580063      -0.02032335       0.02848290      -0.07241034      -0.02624713       0.03209002
C        0.45331983       2.12312917       1.32678141      -0.01738842       0.01777635       0.02447279       0.02045914       0.01578915       0.01328303
H       -0.45425830       1.71944249       1.77965361      -0.03262327      -0.01189356       0.00159514       0.01356802      -0.02739674      -0.04654796
H        1.30516191       1.89173018       1.96703024      -0.00188243      -0.01421933       0.00415244      -0.02317445       0.05957687       0.09476793
H        0.35215580       3.20991372       1.25241709       0.02380439       0.03485004      -0.00013439       0.00505569       0.00660491       0.01184914
16
Properties=species:S:1:pos:R:3:mp2_forces:R:3:forces:R:3 R1=CH3 R2=CN R3=CH3 R4=H lg=Cl nu=F rxn-id=2087 mp2_energy=-22010.165436407504 energy=-22010.891379003733 free_energy=-22010.165436407504 pbc="F F F"
C        1.17869684       0.05712945       0.07029322       0.01478225       0.01545742      -0.04336969       0.95956482       0.14506177       0.19187165
C        0.71562975       1.50979131      -0.03670208      -0.01091377       0.00121525       0.01381974       0.17358241      -0.01723936       0.03471320
H        1.60955137       1.95737095      -0.48198592      -0.01638316      -0.04284895      -0.00765147      -0.06750117       0.38724576      -0.12268986
Cl      -1.57033973      -0.50041556      -0.22481849      -0.03591940      -0.02480279       0.02184809      -0.69392303      -0.17031113      -0.05083525
F        2.59921941       0.24366915       0.45245524       0.06022108       0.02323755      -0.01636898      -0.18414328      -0.05102291      -0.13510130
H       -0.12570850       1.68056414      -0.70889897       0.01844811       0.02922700       0.00336407       0.02621300      -0.43303218       0.09630509
C        1.26793954      -0.71040561      -1.24704935       0.00228916      -0.02118794      -0.02427051       0.17179497       0.04910346       0.07469959
H        0.57717400      -0.38379543      -2.02461952       0.01506375       0.00721603      -0.03056109      -0.07457958       0.14417241       0.32259124
H        2.29452723      -0.50233556      -1.54692644      -0.00730691       0.01919208       0.03309842       0.10711739      -0.18680165      -0.43577644
H        1.13450873      -1.78442455      -1.11345803      -0.01767594      -0.03519986       0.01228168       0.00202332       0.06711159       0.10561591
C        0.76980964      -0.72256832       1.24912012       0.01128518       0.02230404      -0.02075914      -0.30325354      -0.00085786      -0.09884382
N        0.81925708      -1.31166327       2.26747925      -0.00580063      -0.02032335       0.02848290      -0.15961396       0.01168367      -0.05865311
C        0.45945610       2.12502383       1.32869078      -0.01738842       0.01777635       0.02447279       0.03816474       0.00900040       0.01325358
H       -0.44982357       1.71486831       1.77245601      -0.03262327      -0.01189356       0.00159514       0.02309988      -0.03363558      -0.05614240
H        1.30397133       1.90422277       1.98336304      -0.00188243      -0.01421933       0.00415244      -0.01778387       0.07656167       0.11684018
H        0.35188625       3.21098374       1.25233951       0.02380439       0.03485004      -0.00013439      -0.00076212       0.00295995       0.00215175
16
Properties=species:S:1:pos:R:3:mp2_forces:R:3:forces:R:3 R1=CH3 R2=CN R3=CH3 R4=H lg=Cl nu=F rxn-id=2087 mp2_energy=-22010.165436407504 energy=-22011.126880602784 free_energy=-22010.165436407504 pbc="F F F"
C        1.25253583       0.06830755       0.08026415       0.01478225       0.01545742      -0.04336969       0.22940984       0.03697143       0.02941532
C        0.74706837       1.50596762      -0.02956990      -0.01091377       0.00121525       0.01381974       0.09650188      -0.01065716       0.02077811
H        1.59255275       2.01155510      -0.50997521      -0.01638316      -0.04284895      -0.00765147      -0.05025047       0.16961266      -0.07857367
Cl      -1.68102223      -0.51829534      -0.24760677      -0.03591940      -0.02480279       0.02184809      -0.32646642      -0.06194632      -0.04577367
F        2.63316212       0.23415966       0.46020194       0.06022108       0.02323755      -0.01636898       0.11180544      -0.02352682       0.01860537
H       -0.12413674       1.59246760      -0.67706454       0.01844811       0.02922700       0.00336407       0.01168961      -0.27008286       0.08801859
C        1.29700949      -0.70142804      -1.23865912       0.00228916      -0.02118794      -0.02427051       0.08540596       0.02926515       0.02474463
H        0.55056880      -0.37054023      -1.95789513       0.01506375       0.00721603      -0.03056109      -0.06262736       0.07339772       0.19458844
H        2.30162463      -0.51289643      -1.62248995      -0.00730691       0.01919208       0.03309842       0.02800080      -0.06465923      -0.22190621
H        1.15895525      -1.77274336      -1.09132754      -0.01767594      -0.03519986       0.01228168       0.02833557       0.04238826       0.06068528
C        0.75491017      -0.71269146       1.22999645       0.01128518       0.02230404      -0.02075914      -0.03150358       0.03350458      -0.05403583
N        0.75696296      -1.30980689       2.24492257      -0.00580063      -0.02032335       0.02848290      -0.16488464       0.01624307      -0.06309662
C        0.47332266       2.12761151       1.33208326      -0.01738842       0.01777635       0.02447279       0.03146578       0.00303232       0.00743664
H       -0.43467247       1.70454090       1.76604395      -0.03262327      -0.01189356       0.00159514       0.02395972      -0.02852790      -0.04074854
H        1.31053107       1.93086637       2.00483506      -0.00188243      -0.01421933       0.00415244      -0.00430620       0.05830545       0.07270432
H        0.34638282       3.21094076       1.24797912       0.02380439       0.03485004      -0.00013439      -0.00653592      -0.00332038      -0.01284216
16
Properties=species:S:1:pos:R:3:mp2_forces:R:3:forces:R:3 R1=CH3 R2=CN R3=CH3 R4=H lg=Cl nu=F rxn-id=2087 mp2_energy=-22010.165436407504 energy=-22011.232730848875 free_energy=-22010.165436407504 pbc="F F F"