16
Properties=species:S:1:pos:R:3:mp2_forces:R:3:forces:R:3 R1=CN R2=CH3 R3=H R4=CH3 lg=Cl nu=Cl rxn-id=1495 mp2_energy=-31808.036779541617 energy=-31808.036777263427 free_energy=-31808.036777263427 pbc="F F F"
C        0.38940715      -0.06516862       0.06429882      -0.01137202      -0.00341267      -0.00842053      -0.01139781      -0.00340572      -0.00840849
C        0.84332656       1.38960256      -0.04578385       0.00248311      -0.01289515      -0.01069409       0.00249066      -0.01290127      -0.01068759
H        1.93286511       1.36353153       0.04831994       0.00024744       0.00281353      -0.01652217       0.00023910       0.00281857      -0.01652365
Cl      -1.42091346      -0.08492734       0.36086585      -0.01775939       0.00512232       0.00258680      -0.01773552       0.00511964       0.00258266
Cl       3.91922077      -0.01090721      -0.72774383       0.05709683       0.05265589       0.06260786       0.05709595       0.05265529       0.06260808
H        0.41820909       1.91725465       0.81554154       0.02385352      -0.00958281      -0.01060770       0.02385388      -0.00958844      -0.01061630
C        0.56800906      -0.80093058      -1.19082715      -0.01756340       0.00981752       0.02419551      -0.01760597       0.00986395       0.02428701
N        0.60155421      -1.40361409      -2.19848744      -0.01188290      -0.01546392      -0.00991032      -0.01183748      -0.01550274      -0.01000345
C        1.06540964      -0.77415800       1.22595575      -0.00501528      -0.00347899      -0.01606419      -0.00501173      -0.00347245      -0.01606836
H        2.14196626      -0.74455049       1.03603931      -0.00465366      -0.03453901      -0.00749457      -0.00465326      -0.03453883      -0.00749290
H        0.82539438      -0.24631317       2.15277499       0.03000712       0.00337687      -0.01548409       0.03000571       0.00337646      -0.01548667
H        0.72564068      -1.80845152       1.30578519      -0.01609895       0.00554455       0.00146704      -0.01610132       0.00553755       0.00146793
C        0.47217701       2.06302484      -1.35971563      -0.00472229      -0.00226367       0.00522875      -0.00472114      -0.00226622       0.00523929
H        1.12383718       1.69015100      -2.15209058      -0.03758737      -0.00895303      -0.01369288      -0.03758073      -0.00895663      -0.01369947
H       -0.56882797       1.87878536      -1.63883419      -0.00861882       0.01699904       0.02265781      -0.00862640       0.01699803       0.02265454
H        0.61711203       3.14403351      -1.28407211       0.02158606      -0.00574046      -0.00985325       0.02158607      -0.00573720      -0.00985264
16
Properties=species:S:1:pos:R:3:mp2_forces:R:3:forces:R:3 R1=CN R2=CH3 R3=H R4=CH3 lg=Cl nu=Cl rxn-id=1495 mp2_energy=-31808.036779541617 energy=-31808.020554920364 free_energy=-31808.036777263427 pbc="F F F"
C        0.38431745      -0.06120015       0.07400954      -0.01137202      -0.00341267      -0.00842053      -0.00787600      -0.00230901      -0.00196828
C        0.83504721       1.39540539      -0.03816434       0.00248311      -0.01289515      -0.01069409       0.00288411      -0.00652200      -0.00460348
H        1.92133962       1.38192583       0.08247142       0.00024744       0.00281353      -0.01652217       0.00549933      -0.01926118      -0.02065350
Cl      -1.42387101      -0.07998048       0.39538734      -0.01775939       0.00512232       0.00258680      -0.00688535       0.00556338      -0.00378106
Cl       3.88450056       0.02996125      -0.74507919       0.05709683       0.05265589       0.06260786       0.05810463       0.04808409       0.04328938
H        0.38486764       1.93047283       0.80485959       0.02385352      -0.00958281      -0.01060770       0.02061863      -0.00373191       0.00393347
C        0.53541476      -0.79693921      -1.18463788      -0.01756340       0.00981752       0.02419551      -0.00481128      -0.00319500      -0.00104916
N        0.52886391      -1.40990200      -2.18694848      -0.01188290      -0.01546392      -0.00991032       0.02030297      -0.00188378      -0.00209017
C        1.07605553      -0.77904534       1.22175559      -0.00501528      -0.00347899      -0.01606419      -0.00799621      -0.00530843      -0.00488184
H        2.15291254      -0.69480456       1.05390945      -0.00465366      -0.03453901      -0.00749457      -0.00801786      -0.04427492      -0.03420359
H        0.79591058      -0.30222149       2.16405416       0.03000712       0.00337687      -0.01548409       0.03457552       0.02639517      -0.00662152
H        0.79035636      -1.83172551       1.25424868      -0.01609895       0.00554455       0.00146704      -0.04934847       0.00547192       0.02359396
C        0.50026611       2.05341494      -1.36913996      -0.00472229      -0.00226367       0.00522875      -0.01154525      -0.00094039       0.00144620
H        1.17548417       1.67119600      -2.13674948      -0.03758737      -0.00895303      -0.01369288      -0.03298671      -0.01163394      -0.01289030
H       -0.53181999       1.86580686      -1.67705564      -0.00861882       0.01699904       0.02265781      -0.02145139       0.01696812       0.02156700
H        0.64474227       3.13499805      -1.30089422       0.02158606      -0.00574046      -0.00985325       0.00893332      -0.00342213      -0.00108711
16
Properties=species:S:1:pos:R:3:mp2_forces:R:3:forces:R:3 R1=CN R2=CH3 R3=H R4=CH3 lg=Cl nu=Cl rxn-id=1495 mp2_energy=-31808.036779541617 energy=-31807.99430625806 free_energy=-31808.036777263427 pbc="F F F"
C        0.39147180      -0.05757954       0.07996747      -0.01137202      -0.00341267      -0.00842053      -0.01101832      -0.00288690      -0.00124125
C        0.82932409       1.40432446      -0.02862893       0.00248311      -0.01289515      -0.01069409       0.00122647      -0.00747318      -0.00307917
H        1.91204081       1.40611605       0.11511925       0.00024744       0.00281353      -0.01652217       0.00508785      -0.02431064      -0.02202186
Cl      -1.41810802      -0.08673045       0.40191672      -0.01775939       0.00512232       0.00258680      -0.01021620       0.00319984      -0.00755577
Cl       3.81222643      -0.00413721      -0.81140632       0.05709683       0.05265589       0.06260786       0.07157029       0.05446906       0.03935683
H        0.35388453       1.93946225       0.80019169       0.02385352      -0.00958281      -0.01060770       0.02152322      -0.00369511       0.00749446
C        0.53876598      -0.79060903      -1.18089217      -0.01756340       0.00981752       0.02419551      -0.00377161      -0.00321912      -0.00037284
N        0.50531434      -1.40423479      -2.18239220      -0.01188290      -0.01546392      -0.00991032       0.03077956      -0.00140911      -0.00265019
C        1.08388103      -0.77571477       1.22830024      -0.00501528      -0.00347899      -0.01606419      -0.01075987      -0.00503624      -0.00459695
H        2.16001024      -0.64942881       1.08945041      -0.00465366      -0.03453901      -0.00749457      -0.00826099      -0.05476370      -0.04814525
H        0.76059092      -0.33711691       2.17518567       0.03000712       0.00337687      -0.01548409       0.04411900       0.03991441      -0.00414731
H        0.84237706      -1.83982448       1.22572706      -0.01609895       0.00554455       0.00146704      -0.06601612       0.00586846       0.03236870
C        0.51894246       2.05041118      -1.37153122      -0.00472229      -0.00226367       0.00522875      -0.01364072      -0.00139117       0.00277994
H        1.22072270       1.67289899      -2.11735927      -0.03758737      -0.00895303      -0.01369288      -0.03489134      -0.01355154      -0.01185362
H       -0.50154971       1.84487243      -1.70550037      -0.00861882       0.01699904       0.02265781      -0.02489761       0.01804331       0.02283817
H        0.64449305       3.13465307      -1.30612142       0.02158606      -0.00574046      -0.00985325       0.00916638      -0.00375837       0.00082612
16
Properties=species:S:1:pos:R:3:mp2_forces:R:3:forces:R:3 R1=CN R2=CH3 R3=H R4=CH3 lg=Cl nu=Cl rxn-id=1495 mp2_energy=-31808.036779541617 energy=-31807.959052228958 free_energy=-31808.036777263427 pbc="F F F"
C        0.40744054      -0.05376186       0.08338104      -0.01137202      -0.00341267      -0.00842053      -0.02103034      -0.00346006       0.00132322
C        0.82702233       1.41516314      -0.02014198       0.00248311      -0.01289515      -0.01069409      -0.00332663      -0.00955835      -0.00092583
H        1.90498586       1.43885960       0.14843866       0.00024744       0.00281353      -0.01652217       0.00312855      -0.03711103      -0.02537944
Cl      -1.40544376      -0.09561281       0.40033848      -0.01775939       0.00512232       0.00258680      -0.01918153       0.00136741      -0.00858030
Cl       3.71790763      -0.05200810      -0.87942186       0.05709683       0.05265589       0.06260786       0.09700306       0.05908301       0.03079950
H        0.32275521       1.94680122       0.79360502       0.02385352      -0.00958281      -0.01060770       0.02372322      -0.00204799       0.01315234
C        0.55271005      -0.78432066      -1.17956958      -0.01756340       0.00981752       0.02419551      -0.00735642      -0.00284562       0.00231023
N        0.48169874      -1.39910202      -2.17869615      -0.01188290      -0.01546392      -0.00991032       0.04642225      -0.00025243      -0.00364533
C        1.09373441      -0.77213606       1.23704120      -0.00501528      -0.00347899      -0.01606419      -0.01525684      -0.00302234      -0.00421415
H        2.16762893      -0.60427243       1.13975578      -0.00465366      -0.03453901      -0.00749457      -0.00955993      -0.05657822      -0.06800247
H        0.71984820      -0.37528609       2.18354509       0.03000712       0.00337687      -0.01548409       0.05220281       0.05258121       0.00218006
H        0.89865605      -1.84498145       1.19730496      -0.01609895       0.00554455       0.00146704      -0.07853587       0.00585359       0.03902612
C        0.53634494       2.04940751      -1.37332305      -0.00472229      -0.00226367       0.00522875      -0.01602729      -0.00231815       0.00449559
H        1.25912150       1.67616809      -2.10100915      -0.03758737      -0.00895303      -0.01369288      -0.03486193      -0.01661357      -0.00762167
H       -0.47377019       1.82642496      -1.72681726      -0.00861882       0.01699904       0.02265781      -0.02763354       0.01958382       0.02106211
H        0.64374727       3.13601940      -1.31240459       0.02158606      -0.00574046      -0.00985325       0.01029043      -0.00466128       0.00402002
16
Properties=species:S:1:pos:R:3:mp2_forces:R:3:forces:R:3 R1=CN R2=CH3 R3=H R4=CH3 lg=Cl nu=Cl rxn-id=1495 mp2_energy=-31808.036779541617 energy=-31807.91557016264 free_energy=-31808.036777263427 pbc="F F F"
C        0.43704820      -0.05085303       0.08120024      -0.01137202      -0.00341267      -0.00842053      -0.04376727      -0.00336438       0.00797903
C        0.83083447       1.42722847      -0.01426565       0.00248311      -0.01289515      -0.01069409      -0.01319404      -0.01365411       0.00251942
H        1.90236993       1.48354116       0.18052837       0.00024744       0.00281353      -0.01652217      -0.00037026      -0.06782272      -0.03420732
Cl      -1.38196803      -0.10817887       0.38450358      -0.01775939       0.00512232       0.00258680      -0.03738858       0.00253350      -0.00285370
Cl       3.60859352      -0.11493816      -0.93961990       0.05709683       0.05265589       0.06260786       0.13500188       0.06120377       0.01554512
H        0.29328065       1.94800685       0.78496473       0.02385352      -0.00958281      -0.01060770       0.03053700       0.00566952       0.02325266
C        0.58297328      -0.77959072      -1.18349091      -0.01756340       0.00981752       0.02419551      -0.01679699      -0.00076457       0.00929454
N        0.45747391      -1.39585178      -2.17697726      -0.01188290      -0.01546392      -0.00991032       0.07308742       0.00227960      -0.00573650
C        1.10575866      -0.76895543       1.24749690      -0.00501528      -0.00347899      -0.01606419      -0.02369970       0.00193298      -0.00380833
H        2.17702514      -0.57279050       1.20310572      -0.00465366      -0.03453901      -0.00749457      -0.01472690      -0.04043472      -0.09960937
H        0.67958213      -0.40488750       2.18487263       0.03000712       0.00337687      -0.01548409       0.05785648       0.05848397       0.01628058
H        0.94564002      -1.84613321       1.17834591      -0.01609895       0.00554455       0.00146704      -0.08123710       0.00653070       0.04019806
C        0.54884437       2.05228171      -1.37381552      -0.00472229      -0.00226367       0.00522875      -0.01874386      -0.00464288       0.00685405
H        1.28246268       1.68438257      -2.09318790      -0.03758737      -0.00895303      -0.01369288      -0.03039166      -0.02232263       0.00295713
H       -0.45489626       1.81322038      -1.73434255      -0.00861882       0.01699904       0.02265781      -0.02842128       0.02136688       0.01221935
H        0.63936502       3.14088048      -1.31729178       0.02158606      -0.00574046      -0.00985325       0.01225484      -0.00699490       0.00911529
16
Properties=species:S:1:pos:R:3:mp2_forces:R:3:forces:R:3 R1=CN R2=CH3 R3=H R4=CH3 lg=Cl nu=Cl rxn-id=1495 mp2_energy=-31808.036779541617 energy=-31807.850958610827 free_energy=-31808.036777263427 pbc="F F F"
C        0.47836142      -0.04965373       0.07355603      -0.01137202      -0.00341267      -0.00842053      -0.09641200      -0.00001586       0.02595534
C        0.84133365       1.43900569      -0.01338151       0.00248311      -0.01289515      -0.01069409      -0.03580543      -0.01881425       0.01103882
H        1.90252673       1.54292508       0.21345486       0.00024744       0.00281353      -0.01652217      -0.00505653      -0.13630784      -0.05056270
Cl      -1.34918028      -0.11795025       0.37085616      -0.01775939       0.00512232       0.00258680      -0.05591676       0.00112841      -0.00147632
Cl       3.49788063      -0.17687351      -0.97443757       0.05709683       0.05265589       0.06260786       0.19967214       0.05745354      -0.01740938
H        0.26254133       1.93975386       0.76916597       0.02385352      -0.00958281      -0.01060770       0.04451876       0.04161313       0.04138335
C        0.61108665      -0.77867569      -1.19332808      -0.01756340       0.00981752       0.02419551      -0.01659757       0.00818465       0.02447528
N        0.40999053      -1.39524409      -2.17530537      -0.01188290      -0.01546392      -0.00991032       0.11491580       0.01076662      -0.00542410
C        1.12355553      -0.76883123       1.25566287      -0.00501528      -0.00347899      -0.01606419      -0.04535171       0.01061693      -0.00093009
H        2.18992623      -0.55056061       1.28223090      -0.00465366      -0.03453901      -0.00749457      -0.02940330      -0.00026158      -0.16283515
H        0.63692917      -0.43418726       2.17393553       0.03000712       0.00337687      -0.01548409       0.06749917       0.04810318       0.05619244
H        0.99460537      -1.84827932       1.16016404      -0.01609895       0.00554455       0.00146704      -0.07971020       0.00982397       0.03676227
C        0.56104005       2.05739980      -1.37659966      -0.00472229      -0.00226367       0.00522875      -0.02445043      -0.00961059       0.01083536
H        1.30077165       1.70073803      -2.09524453      -0.03758737      -0.00895303      -0.01369288      -0.02244756      -0.03493764       0.02398087
H       -0.43781378       1.79987738      -1.73706480      -0.00861882       0.01699904       0.02265781      -0.02955327       0.02415228      -0.00640207
H        0.63083282       3.14791829      -1.32163823       0.02158606      -0.00574046      -0.00985325       0.01409889      -0.01189496       0.01441608
16
Properties=species:S:1:pos:R:3:mp2_forces:R:3:forces:R:3 R1=CN R2=CH3 R3=H R4=CH3 lg=Cl nu=Cl rxn-id=1495 mp2_energy=-31808.036779541617 energy=-31807.69000014158 free_energy=-31808.036777263427 pbc="F F F"
C        0.54892963      -0.05114467       0.05438767      -0.01137202      -0.00341267      -0.00842053      -0.38140832       0.00710536       0.10661349
C        0.86864554       1.45126177      -0.02252621       0.00248311      -0.01289515      -0.01069409      -0.10955818      -0.02972735       0.03804072
H        1.90830256       1.63928480       0.24880263       0.00024744       0.00281353      -0.01652217      -0.02682372      -0.30386794      -0.06854196
Cl      -1.31009565      -0.11526058       0.37765399      -0.01775939       0.00512232       0.00258680       0.10588407      -0.00467985      -0.04802243
Cl       3.35419879      -0.21441472      -0.95134997       0.05709683       0.05265589       0.06260786       0.40226374       0.01142030      -0.14196071
H        0.22995368       1.90631873       0.73864622       0.02385352      -0.00958281      -0.01060770       0.05785585       0.18891551       0.07097878
C        0.61656880      -0.78621043      -1.21395006      -0.01756340       0.00981752       0.02419551       0.06073027       0.03656503       0.05123368
N        0.32297863      -1.40038391      -2.17577218      -0.01188290      -0.01546392      -0.00991032       0.16488403       0.03972465       0.02013712
C        1.15820417      -0.77693233       1.25690661      -0.00501528      -0.00347899      -0.01606419      -0.12305874       0.02381752       0.01121073
H        2.21277635      -0.54699933       1.40008325      -0.00465366      -0.03453901      -0.00749457      -0.08766289       0.09768887      -0.31028808
H        0.58624691      -0.46791298       2.13217373       0.03000712       0.00337687      -0.01548409       0.08850692      -0.02277918       0.18552360
H        1.05661302      -1.85636029       1.13209087      -0.01609895       0.00554455       0.00146704      -0.07466505       0.01238675       0.03584508
C        0.57878829       2.06338274      -1.38609038      -0.00472229      -0.00226367       0.00522875      -0.03943977      -0.01769039       0.01867500
H        1.31780546       1.72608677      -2.11482730      -0.03758737      -0.00895303      -0.01369288      -0.01189620      -0.05513993       0.06226343
H       -0.41704930       1.78098225      -1.73430228      -0.00861882       0.01699904       0.02265781      -0.03495088       0.03500813      -0.04746341
H        0.62152082       3.15566463      -1.32989998       0.02158606      -0.00574046      -0.00985325       0.00933887      -0.01874746       0.01575497
16
Properties=species:S:1:pos:R:3:mp2_forces:R:3:forces:R:3 R1=CN R2=CH3 R3=H R4=CH3 lg=Cl nu=Cl rxn-id=1495 mp2_energy=-31808.036779541617 energy=-31807.433986251046 free_energy=-31808.036777263427 pbc="F F F"
C        0.63935793      -0.05356584       0.02834425      -0.01137202      -0.00341267      -0.00842053      -1.17476887       0.00546449       0.29450424
C        0.89552841       1.45749657      -0.03241575       0.00248311      -0.01289515      -0.01069409      -0.17064349      -0.04419190       0.05559376
H        1.91604635       1.70942147       0.26342111       0.00024744       0.00281353      -0.01652217      -0.04042374      -0.38296077      -0.06799117
Cl      -1.33597002      -0.11289266       0.39009089      -0.01775939       0.00512232       0.00258680       0.73251013       0.02093615      -0.13939295
Cl       3.26220247      -0.21170696      -0.91129596       0.05709683       0.05265589       0.06260786       0.57839841      -0.03401566      -0.24549291
H        0.21833109       1.86089108       0.72181692       0.02385352      -0.00958281      -0.01060770       0.05442050       0.31528071       0.08183530
C        0.60089556      -0.79569652      -1.22751201      -0.01756340       0.00981752       0.02419551       0.23152658       0.02455007      -0.01461673
N        0.28454685      -1.40917977      -2.18324454      -0.01188290      -0.01546392      -0.00991032       0.13596558       0.05844808       0.05261037
C        1.18722481      -0.78301849       1.25400858      -0.00501528      -0.00347899      -0.01606419      -0.19204954       0.02370918       0.01368944
H        2.23418972      -0.57235937       1.47153282      -0.00465366      -0.03453901      -0.00749457      -0.12199034       0.14785485      -0.37320672
H        0.56686569      -0.45966858       2.08802629       0.03000712       0.00337687      -0.01548409       0.09642928      -0.08202984       0.28191241
H        1.07080700      -1.85974527       1.12533424      -0.01609895       0.00554455       0.00146704      -0.05355581      -0.00265532       0.03451549
C        0.58712164       2.06712602      -1.39086170      -0.00472229      -0.00226367       0.00522875      -0.03885793      -0.01929784       0.01818998
H        1.31810778       1.73780685      -2.13115060      -0.03758737      -0.00895303      -0.01369288      -0.00599273      -0.05129724       0.06145098
H       -0.41099977       1.77282220      -1.72105681      -0.00861882       0.01699904       0.02265781      -0.03151924       0.03699004      -0.06270441
H        0.62013221       3.15963170      -1.33301112       0.02158606      -0.00574046      -0.00985325       0.00055121      -0.01678502       0.00910292
16
Properties=species:S:1:pos:R:3:mp2_forces:R:3:forces:R:3 R1=CN R2=CH3 R3=H R4=CH3 lg=Cl nu=Cl rxn-id=1495 mp2_energy=-31808.036779541617 energy=-31807.182555743282 free_energy=-31808.036777263427 pbc="F F F"
C        0.72864392      -0.05397073       0.00612530      -0.01137202      -0.00341267      -0.00842053      -1.32898986       0.00887319       0.33240192
C        0.90852913       1.46061661      -0.03685521       0.00248311      -0.01289515      -0.01069409      -0.12700000      -0.02689900       0.03772833
H        1.91921052       1.73797237       0.26826975       0.00024744       0.00281353      -0.01652217      -0.01769000      -0.28523440      -0.05477192
Cl      -1.39177943      -0.11368049       0.40151277      -0.01775939       0.00512232       0.00258680       0.77038590       0.03159821      -0.12733284
Cl       3.21877997      -0.20813422      -0.89134052       0.05709683       0.05265589       0.06260786       0.52577339      -0.03055864      -0.21562357
H        0.21447667       1.83659444       0.71558134       0.02385352      -0.00958281      -0.01060770       0.04435525       0.25812636       0.05898223
C        0.58280661      -0.79870456      -1.22848886      -0.01756340       0.00981752       0.02419551       0.28364117       0.01599840      -0.04158538
N        0.27465588      -1.41226700      -2.18628086      -0.01188290      -0.01546392      -0.00991032       0.06834770       0.02265348       0.00650269
C        1.20180001      -0.78498734       1.25282561      -0.00501528      -0.00347899      -0.01606419      -0.14117633       0.01062375       0.01485688
H        2.24341840      -0.58339088       1.49952809      -0.00465366      -0.03453901      -0.00749457      -0.07694630       0.11008256      -0.27749016
H        0.55955886      -0.45329592       2.06632359       0.03000712       0.00337687      -0.01548409       0.07760822      -0.07166220       0.22437636
H        1.07474811      -1.85980271       1.12295563      -0.01609895       0.00554455       0.00146704      -0.03037882      -0.00859321       0.02662289
C        0.58993032       2.06842033      -1.39241118      -0.00472229      -0.00226367       0.00522875      -0.02401233      -0.01234299       0.01057812
H        1.31835407       1.74124894      -2.13599655      -0.03758737      -0.00895303      -0.01369288      -0.00212270      -0.03716105       0.04166499
H       -0.40895884       1.76999991      -1.71612727      -0.00861882       0.01699904       0.02265781      -0.02118187       0.02446633      -0.04174510
H        0.62021351       3.16074367      -1.33359501       0.02158606      -0.00574046      -0.00985325      -0.00061342      -0.00997077       0.00483455
16
Properties=species:S:1:pos:R:3:mp2_forces:R:3:forces:R:3 R1=CN R2=CH3 R3=H R4=CH3 lg=Cl nu=Cl rxn-id=1495 mp2_energy=-31808.036779541617 energy=-31807.01348810093 free_energy=-31808.036777263427 pbc="F F F"
C        0.81281086      -0.05473466      -0.01512502      -0.01137202      -0.00341267      -0.00842053      -0.80121592       0.01110121       0.21244378
C        0.91660423       1.46211991      -0.03940751       0.00248311      -0.01289515      -0.01069409      -0.06219091      -0.00735005       0.01630820
H        1.92038383       1.75566560       0.27154141       0.00024744       0.00281353      -0.01652217      -0.00287558      -0.14646600      -0.03213843
Cl      -1.44051922      -0.11499948       0.41023232      -0.01775939       0.00512232       0.00258680       0.40910957       0.02412631      -0.05775440
Cl       3.18586260      -0.20543657      -0.87679573       0.05709683       0.05265589       0.06260786       0.33067168      -0.01264558      -0.12430232
H        0.21180055       1.81989305       0.71181910       0.02385352      -0.00958281      -0.01060770       0.02341914       0.13514985       0.02819117
C        0.56495470      -0.79948961      -1.22571795      -0.01756340       0.00981752       0.02419551       0.17342406      -0.00384514      -0.04935263
N        0.27034634      -1.41355611      -2.18745104      -0.01188290      -0.01546392      -0.00991032       0.02859479       0.01032183      -0.00487092
C        1.21071207      -0.78578292       1.25180403      -0.00501528      -0.00347899      -0.01606419      -0.06735151       0.00064622       0.01355738
H        2.24826964      -0.59033654       1.51688514      -0.00465366      -0.03453901      -0.00749457      -0.03203036       0.05453368      -0.14187731
H        0.55463487      -0.44847294       2.05187688       0.03000712       0.00337687      -0.01548409       0.04050156      -0.03844491       0.11693964
H        1.07647692      -1.85943687       1.12146892      -0.01609895       0.00554455       0.00146704      -0.01494951      -0.00737762       0.01552594
C        0.59133113       2.06904173      -1.39320277      -0.00472229      -0.00226367       0.00522875      -0.01177458      -0.00556450       0.00277168
H        1.31826327       1.74325046      -2.13884069      -0.03758737      -0.00895303      -0.01369288      -0.00129945      -0.02116154       0.02001041
H       -0.40791871       1.76841717      -1.71329381      -0.00861882       0.01699904       0.02265781      -0.01230001       0.01177216      -0.01874602
H        0.62037462       3.16122021      -1.33376667       0.02158606      -0.00574046      -0.00985325       0.00026704      -0.00479591       0.00329383
16
Properties=species:S:1:pos:R:3:mp2_forces:R:3:forces:R:3 R1=CN R2=CH3 R3=H R4=CH3 lg=Cl nu=Cl rxn-id=1495 mp2_energy=-31808.036779541617 energy=-31806.957541049647 free_energy=-31808.036777263427 pbc="F F F"
C        0.89751310      -0.05613304      -0.03771306      -0.01137202      -0.00341267      -0.00842053       0.06354773      -0.00342867      -0.01871248
C        0.92320304       1.46257611      -0.04137934       0.00248311      -0.01289515      -0.01069409       0.00501339      -0.00302207      -0.00362643
H        1.92074533       1.77055956       0.27465804       0.00024744       0.00281353      -0.01652217       0.00044683       0.00575559       0.00021825
Cl      -1.48352326      -0.11636833       0.41744758      -0.01775939       0.00512232       0.00258680      -0.02618749       0.01039844       0.01532756
Cl       3.15142242      -0.20290995      -0.86224517       0.05709683       0.05265589       0.06260786      -0.02417486       0.01250839       0.02438565
H        0.20949095       1.80504372       0.70877196       0.02385352      -0.00958281      -0.01060770      -0.00037760      -0.01650246      -0.00299850
C        0.54654825      -0.79934292      -1.22129616      -0.01756340       0.00981752       0.02419551      -0.01383874      -0.00218861      -0.00423160
N        0.26763378      -1.41390144      -2.18741715      -0.01188290      -0.01546392      -0.00991032       0.00117590       0.00723903      -0.00386463
C        1.21776260      -0.78604533       1.25025629      -0.00501528      -0.00347899      -0.01606419       0.00438785      -0.00181240      -0.00254648
H        2.25158790      -0.59602562       1.53157946      -0.00465366      -0.03453901      -0.00749457       0.00139403      -0.00319869       0.00845972
H        0.55029497      -0.44397945       2.03913519       0.03000712       0.00337687      -0.01548409      -0.00400898       0.00736048      -0.01332129
H        1.07782011      -1.85895061       1.12011655      -0.01609895       0.00554455       0.00146704      -0.00098747      -0.00230887       0.00149132
C        0.59238186       2.06936385      -1.39369238      -0.00472229      -0.00226367       0.00522875      -0.00109552      -0.00240432      -0.00204984
H        1.31805045       1.74493843      -2.14128413      -0.03758737      -0.00895303      -0.01369288      -0.00345701      -0.00377260      -0.00480615
H       -0.40709072       1.76706943      -1.71101969      -0.00861882       0.01699904       0.02265781      -0.00374605      -0.00226148       0.00423662
H        0.62054692       3.16146802      -1.33389139       0.02158606      -0.00574046      -0.00985325       0.00190799      -0.00236176       0.00203828
16
Properties=species:S:1:pos:R:3:mp2_forces:R:3:forces:R:3 R1=CN R2=CH3 R3=H R4=CH3 lg=Cl nu=Cl rxn-id=1495 mp2_energy=-31808.036779541617 energy=-31807.03041519898 free_energy=-31808.036777263427 pbc="F F F"