11
Properties=species:S:1:pos:R:3:mp2_forces:R:3:forces:R:3 R1=H R2=CN R3=CN R4=H lg=F nu=F rxn-id=379 mp2_energy=-12585.86694622611 energy=-12585.866950005744 free_energy=-12585.866950005744 pbc="F F F"
C        0.65782519      -0.05580753       0.04122884       0.01249662      -0.00963594      -0.09699592       0.01247392      -0.00959727      -0.09699443
C        1.22694601       1.34620611       0.08011472      -0.00925827      -0.00917100      -0.00514619      -0.00925081      -0.00913838      -0.00509817
H        2.32562132       1.07669560       0.09029895       0.02185233       0.02075364       0.00021398       0.02182035       0.02076279       0.00021165
F       -0.74211959      -0.03672748      -0.08278113       0.02964338      -0.07312648       0.01145163       0.02965616      -0.07313533       0.01146532
F        3.17557697      -0.24889981      -0.29983303       0.00308845       0.02594362      -0.03014148       0.00310060       0.02593195      -0.03014340
H        1.10903032      -0.55478390      -0.81167140      -0.04335756       0.01039289      -0.03322794      -0.04335106       0.01038212      -0.03324335
H        0.99939173       1.83771887      -0.87093944       0.01329738      -0.01347703       0.01859527       0.01329793      -0.01348096       0.01860031
C        1.00602533      -0.84029197       1.23286717       0.00006778       0.01462320       0.02944183       0.00008823       0.01458536       0.02948965
N        1.18648002      -1.50142326       2.18477026      -0.05826471       0.00908172       0.05853531      -0.05828433       0.00911082       0.05848366
C        0.72314531       2.15495428       1.17493076       0.03380571       0.02214207       0.01274530       0.03385063       0.02211048       0.01268652
N        0.32931003       2.83922631       2.04514805      -0.00337111       0.00247330       0.03452821      -0.00340163       0.00246843       0.03454224
11
Properties=species:S:1:pos:R:3:mp2_forces:R:3:forces:R:3 R1=H R2=CN R3=CN R4=H lg=F nu=F rxn-id=379 mp2_energy=-12585.86694622611 energy=-12585.867512077713 free_energy=-12585.866950005744 pbc="F F F"
C        0.67485559      -0.06202855       0.02893139       0.01249662      -0.00963594      -0.09699592      -0.01619839      -0.00123058      -0.00450985
C        1.22149283       1.35076420       0.06612119      -0.00925827      -0.00917100      -0.00514619      -0.00405234      -0.00669606       0.00848379
H        2.32121204       1.11152143       0.05549176       0.02185233       0.02075364       0.00021398      -0.00116361      -0.02847687       0.01152092
F       -0.72487387      -0.06313427      -0.10559876       0.02964338      -0.07312648       0.01145163      -0.00487018      -0.01036153      -0.01876670
F        3.17523934      -0.26256574      -0.29542470       0.00308845       0.02594362      -0.03014148       0.01379294       0.02991223      -0.03450183
H        1.13766065      -0.55683259      -0.81912262      -0.04335756       0.01039289      -0.03322794       0.00352997      -0.00153003       0.00530308
H        0.95242219       1.84402549      -0.87263446       0.01329738      -0.01347703       0.01859527       0.01831819      -0.00290229       0.00495777
C        1.00559704      -0.82742519       1.23840011       0.00006778       0.01462320       0.02944183      -0.01773147       0.00389657       0.00659438
N        1.12984204      -1.45899542       2.21953349      -0.05826471       0.00908172       0.05853531       0.00394250       0.01742121       0.01166722
C        0.74059040       2.14159018       1.18567605       0.03380571       0.02214207       0.01274530      -0.00157108      -0.00360991       0.00570336
N        0.36319440       2.79994769       2.08276030      -0.00337111       0.00247330       0.03452821       0.00600346       0.00357725       0.00354785
11
Properties=species:S:1:pos:R:3:mp2_forces:R:3:forces:R:3 R1=H R2=CN R3=CN R4=H lg=F nu=F rxn-id=379 mp2_energy=-12585.86694622611 energy=-12585.859671524586 free_energy=-12585.866950005744 pbc="F F F"
C        0.68796993      -0.06179567       0.02156314       0.01249662      -0.00963594      -0.09699592      -0.03131078      -0.00068439      -0.00796212
C        1.21737342       1.35905250       0.04914569      -0.00925827      -0.00917100      -0.00514619      -0.00651931      -0.01003940       0.01520837
H        2.31584292       1.14792679       0.02404926       0.02185233       0.02075364       0.00021398      -0.00210987      -0.05516432       0.02951285
F       -0.71331180      -0.06615222      -0.11182123       0.02964338      -0.07312648       0.01145163      -0.01114039      -0.01582211      -0.02147317
F        3.16328814      -0.29645700      -0.24408774       0.00308845       0.02594362      -0.03014148       0.02249503       0.04719215      -0.04603810
H        1.15036701      -0.55989884      -0.82416811      -0.04335756       0.01039289      -0.03322794      -0.00412851       0.00076615       0.00385807
H        0.90832174       1.85300350      -0.87724131       0.01329738      -0.01347703       0.01859527       0.03763587      -0.00287060       0.00558315
C        1.01774199      -0.82009298       1.23484445       0.00006778       0.01462320       0.02944183      -0.02257484       0.00348855       0.00643737
N        1.11317940      -1.44723954       2.22230031      -0.05826471       0.00908172       0.05853531       0.01897841       0.01949915       0.00991069
C        0.75138519       2.13422667       1.18754688       0.03380571       0.02214207       0.01274530      -0.00637266      -0.00186854       0.00644915
N        0.38507469       2.77429402       2.10200240      -0.00337111       0.00247330       0.03452821       0.00504706       0.01550335      -0.00148627
11
Properties=species:S:1:pos:R:3:mp2_forces:R:3:forces:R:3 R1=H R2=CN R3=CN R4=H lg=F nu=F rxn-id=379 mp2_energy=-12585.86694622611 energy=-12585.848163845194 free_energy=-12585.866950005744 pbc="F F F"
C        0.70002796      -0.06185063       0.01491350       0.01249662      -0.00963594      -0.09699592      -0.04422057       0.00015871      -0.01021254
C        1.21425047       1.36583758       0.03427170      -0.00925827      -0.00917100      -0.00514619      -0.00842951      -0.01132094       0.01991449
H        2.31134667       1.18312391      -0.00424358       0.02185233       0.02075364       0.00021398      -0.00320783      -0.08002065       0.04463303
F       -0.70328971      -0.06675531      -0.11435250       0.02964338      -0.07312648       0.01145163      -0.01631230      -0.02194482      -0.02410827
F        3.15079902      -0.32618450      -0.19278890       0.00308845       0.02594362      -0.03014148       0.03048055       0.06037730      -0.05646137
H        1.15769954      -0.56301698      -0.83098257      -0.04335756       0.01039289      -0.03322794      -0.00819565       0.00410410       0.00369021
H        0.87072060       1.85961068      -0.88033968       0.01329738      -0.01347703       0.01859527       0.05179450      -0.00081140       0.00460056
C        1.03066342      -0.81541396       1.23000306       0.00006778       0.01462320       0.02944183      -0.02613488       0.00447035       0.00764740
N        1.10024026      -1.43833463       2.22261218      -0.05826471       0.00908172       0.05853531       0.03002699       0.01971914       0.00824543
C        0.76087741       2.12750735       1.18836560       0.03380571       0.02214207       0.01274530      -0.00989595       0.00058780       0.00687991
N        0.40389700       2.75234373       2.11667493      -0.00337111       0.00247330       0.03452821       0.00409467       0.02468042      -0.00482886
11
Properties=species:S:1:pos:R:3:mp2_forces:R:3:forces:R:3 R1=H R2=CN R3=CN R4=H lg=F nu=F rxn-id=379 mp2_energy=-12585.86694622611 energy=-12585.835159217393 free_energy=-12585.866950005744 pbc="F F F"
C        0.71111249      -0.06198826       0.00981011       0.01249662      -0.00963594      -0.09699592      -0.05533176       0.00177240      -0.01096051
C        1.21298794       1.37110141       0.02255289      -0.00925827      -0.00917100      -0.00514619      -0.01052255      -0.01118507       0.02239454
H        2.30869571       1.21590993      -0.02694070       0.02185233       0.02075364       0.00021398      -0.00479358      -0.10558506       0.05506188
F       -0.69459832      -0.06416750      -0.11218542       0.02964338      -0.07312648       0.01145163      -0.02197412      -0.02955808      -0.02752053
F        3.13787358      -0.35235752      -0.14788346       0.00308845       0.02594362      -0.03014148       0.03726882       0.07111919      -0.06335861
H        1.16002820      -0.56599070      -0.83857539      -0.04335756       0.01039289      -0.03322794      -0.00862546       0.00941884       0.00496266
H        0.84199692       1.86361896      -0.88225478       0.01329738      -0.01347703       0.01859527       0.06134348       0.00339250       0.00277120
C        1.04416378      -0.81351432       1.22465804       0.00006778       0.01462320       0.02944183      -0.02890285       0.00667840       0.00960068
N        1.09097361      -1.43332675       2.22091465      -0.05826471       0.00908172       0.05853531       0.03879353       0.01905904       0.00640714
C        0.76763623       2.12207996       1.18811046       0.03380571       0.02214207       0.01274530      -0.01054959       0.00424080       0.00705291
N        0.41636251       2.73550200       2.12592736      -0.00337111       0.00247330       0.03452821       0.00329409       0.03064705      -0.00641138
11
Properties=species:S:1:pos:R:3:mp2_forces:R:3:forces:R:3 R1=H R2=CN R3=CN R4=H lg=F nu=F rxn-id=379 mp2_energy=-12585.86694622611 energy=-12585.820243846567 free_energy=-12585.866950005744 pbc="F F F"
C        0.72270149      -0.06205692       0.00623588       0.01249662      -0.00963594      -0.09699592      -0.06560845       0.00433729      -0.00994154
C        1.21412032       1.37557137       0.01302355      -0.00925827      -0.00917100      -0.00514619      -0.01465300      -0.01018362       0.02294800
H        2.30842207       1.25006249      -0.04563295       0.02185233       0.02075364       0.00021398      -0.00812918      -0.13896962       0.06189078
F       -0.68583951      -0.05739500      -0.10489791       0.02964338      -0.07312648       0.01145163      -0.03116098      -0.04012932      -0.03133193
F        3.12327872      -0.37854801      -0.10857765       0.00308845       0.02594362      -0.03014148       0.04546450       0.08064133      -0.06628064
H        1.15808494      -0.56936349      -0.84674999      -0.04335756       0.01039289      -0.03322794      -0.00433145       0.01814092       0.00763682
H        0.81966032       1.86514914      -0.88366011       0.01329738      -0.01347703       0.01859527       0.06806550       0.01193249      -0.00020036
C        1.05927141      -0.81398392       1.21907255       0.00006778       0.01462320       0.02944183      -0.03136099       0.01088278       0.01084210
N        1.08381874      -1.43195098       2.21772806      -0.05826471       0.00908172       0.05853531       0.04767958       0.01868456       0.00338161
C        0.77176771       2.11757884       1.18675777       0.03380571       0.02214207       0.01274530      -0.00891571       0.00966635       0.00726436
N        0.42194643       2.72180370       2.13083456      -0.00337111       0.00247330       0.03452821       0.00295018       0.03499684      -0.00620919
11
Properties=species:S:1:pos:R:3:mp2_forces:R:3:forces:R:3 R1=H R2=CN R3=CN R4=H lg=F nu=F rxn-id=379 mp2_energy=-12585.86694622611 energy=-12585.793357593067 free_energy=-12585.866950005744 pbc="F F F"
C        0.74213283      -0.06256598       0.00399621       0.01249662      -0.00963594      -0.09699592      -0.08698974       0.01211657      -0.00613830
C        1.22058721       1.38081519       0.00237058      -0.00925827      -0.00917100      -0.00514619      -0.02895588      -0.00661317       0.02133637
H        2.31280608       1.30597665      -0.06765385       0.02185233       0.02075364       0.00021398      -0.01729231      -0.20986465       0.06530150
F       -0.67117263      -0.03996638      -0.08679506       0.02964338      -0.07312648       0.01145163      -0.05406003      -0.06269476      -0.03931502
F        3.09992294      -0.41499577      -0.06547766       0.00308845       0.02594362      -0.03014148       0.06889058       0.08399567      -0.06046302
H        1.15006025      -0.57665577      -0.85794518      -0.04335756       0.01039289      -0.03322794       0.01110479       0.03980065       0.01682937
H        0.79549109       1.86157466      -0.88524642       0.01329738      -0.01347703       0.01859527       0.07429950       0.03719433      -0.00637140
C        1.08172370      -0.81847440       1.21246337       0.00006778       0.01462320       0.02944183      -0.03099223       0.02362005       0.00851455
N        1.07203773      -1.43531017       2.21288106      -0.05826471       0.00908172       0.05853531       0.06654136       0.01913878      -0.00524068
C        0.77393410       2.11160428       1.18326049       0.03380571       0.02214207       0.01274530      -0.00477201       0.02303422       0.00769322
N        0.41970934       2.70486492       2.13228023      -0.00337111       0.00247330       0.03452821       0.00222596       0.04027231      -0.00214659
11
Properties=species:S:1:pos:R:3:mp2_forces:R:3:forces:R:3 R1=H R2=CN R3=CN R4=H lg=F nu=F rxn-id=379 mp2_energy=-12585.86694622611 energy=-12585.738757944206 free_energy=-12585.866950005744 pbc="F F F"
C        0.77562035      -0.06559637       0.00648511       0.01249662      -0.00963594      -0.09699592      -0.16091150       0.03518583      -0.00080723
C        1.23821721       1.38556091      -0.00702868      -0.00925827      -0.00917100      -0.00514619      -0.07043674      -0.00011180       0.01742887
H        2.32606188       1.39485535      -0.09257136       0.02185233       0.02075364       0.00021398      -0.03716623      -0.33899200       0.06275122
F       -0.64513985      -0.00723543      -0.05638162       0.02964338      -0.07312648       0.01145163      -0.10847788      -0.09918944      -0.05956885
F        3.06746369      -0.45076896      -0.04308979       0.00308845       0.02594362      -0.03014148       0.15061794       0.04237677      -0.02980320
H        1.13700066      -0.59334248      -0.86766449      -0.04335756       0.01039289      -0.03322794       0.04989597       0.08412583       0.05065915
H        0.77243261       1.84418582      -0.88582180       0.01329738      -0.01347703       0.01859527       0.07690278       0.09722297      -0.01839778
C        1.10275552      -0.82982103       1.21217548       0.00006778       0.01462320       0.02944183      -0.01137707       0.05190782      -0.01037199
N        1.04328216      -1.44657970       2.21204918      -0.05826471       0.00908172       0.05853531       0.11270373       0.02670333      -0.03129314
C        0.77365865       2.10244899       1.17742321       0.03380571       0.02214207       0.01274530      -0.00156539       0.05296003       0.00890146
N        0.40587976       2.68316012       2.12855850      -0.00337111       0.00247330       0.03452821      -0.00018561       0.04781067       0.01050150
11
Properties=species:S:1:pos:R:3:mp2_forces:R:3:forces:R:3 R1=H R2=CN R3=CN R4=H lg=F nu=F rxn-id=379 mp2_energy=-12585.86694622611 energy=-12585.639984378682 free_energy=-12585.866950005744 pbc="F F F"
C        0.82235047      -0.07545767       0.00832508       0.01249662      -0.00963594      -0.09699592      -0.42820069       0.08332799       0.00822408
C        1.26127694       1.38741145      -0.01391547      -0.00925827      -0.00917100      -0.00514619      -0.12821341      -0.00257101       0.01636634
H        2.33949689       1.49512222      -0.11748633       0.02185233       0.02075364       0.00021398      -0.05322362      -0.47171479       0.05092691
F       -0.61217030       0.02158946      -0.03796688       0.02964338      -0.07312648       0.01145163      -0.16353819      -0.11603261      -0.07877971
F        3.02788614      -0.45821003      -0.04294784       0.00308845       0.02594362      -0.03014148       0.34397082      -0.05757805       0.01017365
H        1.12438578      -0.61889319      -0.87903927      -0.04335756       0.01039289      -0.03322794       0.13257875       0.13028495       0.14237411
H        0.74990480       1.81714914      -0.88149309       0.01329738      -0.01347703       0.01859527       0.07691529       0.16449162      -0.03469853
C        1.10218250      -0.84419861       1.22324838       0.00006778       0.01462320       0.02944183       0.07744646       0.08027682      -0.06569833
N        1.00205927      -1.45531406       2.22411293      -0.05826471       0.00908172       0.05853531       0.15168058       0.04806115      -0.08703569
C        0.77659547       2.08691102       1.17429095       0.03380571       0.02214207       0.01274530       0.00489231       0.09512658       0.00955891
N        0.40326468       2.66075749       2.12700530      -0.00337111       0.00247330       0.03452821      -0.01430830       0.04632735       0.02858825
11
Properties=species:S:1:pos:R:3:mp2_forces:R:3:forces:R:3 R1=H R2=CN R3=CN R4=H lg=F nu=F rxn-id=379 mp2_energy=-12585.86694622611 energy=-12585.492761639025 free_energy=-12585.866950005744 pbc="F F F"
C        0.88489617      -0.08915012       0.00541029       0.01249662      -0.00963594      -0.09699592      -1.11308387       0.16020849       0.01923541
C        1.28065389       1.38718580      -0.01621246      -0.00925827      -0.00917100      -0.00514619      -0.13690420      -0.01077387       0.01374705
H        2.34779134       1.56863257      -0.12269260       0.02185233       0.02075364       0.00021398      -0.03623354      -0.49157705       0.02389790
F       -0.58952051       0.03958424      -0.02758578       0.02964338      -0.07312648       0.01145163       0.01209365      -0.11302758      -0.08165297
F        2.97699751      -0.45041638      -0.04174178       0.00308845       0.02594362      -0.03014148       0.59343168      -0.14557681       0.02051621
H        1.10041898      -0.64021547      -0.90187000      -0.04335756       0.01039289      -0.03322794       0.25163336       0.13144175       0.22615638
H        0.74082276       1.79422396      -0.87654853       0.01329738      -0.01347703       0.01859527       0.07738751       0.19438193      -0.04656921
C        1.09052276      -0.85714097       1.23308194       0.00006778       0.01462320       0.02944183       0.23340045       0.06251959      -0.09913392
N        0.98380724      -1.46082198       2.23740423      -0.05826471       0.00908172       0.05853531       0.12839900       0.05821981      -0.12089072
C        0.77445886       2.07091859       1.17297952       0.03380571       0.02214207       0.01274530       0.02861612       0.13144364       0.00481874
N        0.40638364       2.65406698       2.12190893      -0.00337111       0.00247330       0.03452821      -0.03874015       0.02274012       0.03987513
11
Properties=species:S:1:pos:R:3:mp2_forces:R:3:forces:R:3 R1=H R2=CN R3=CN R4=H lg=F nu=F rxn-id=379 mp2_energy=-12585.86694622611 energy=-12585.308377364618 free_energy=-12585.866950005744 pbc="F F F"
C        0.96425232      -0.10054556       0.00402574       0.01249662      -0.00963594      -0.09699592      -1.56706654       0.20742640       0.01728996
C        1.29086971       1.38786891      -0.01681296      -0.00925827      -0.00917100      -0.00514619      -0.08087906      -0.00381945       0.00989677
H        2.35107758       1.60419606      -0.12242000       0.02185233       0.02075364       0.00021398      -0.00715897      -0.36465098       0.01388897
F       -0.59088323       0.04866576      -0.02025485       0.02964338      -0.07312648       0.01145163       0.31028929      -0.09679720      -0.06419154
F        2.93403578      -0.44094925      -0.04495089       0.00308845       0.02594362      -0.03014148       0.62225556      -0.15052991       0.01687417
H        1.08149170      -0.65004625      -0.91789945      -0.04335756       0.01039289      -0.03322794       0.28046863       0.06542657       0.15854398
H        0.73721780       1.78021650      -0.87382193       0.01329738      -0.01347703       0.01859527       0.06714157       0.16548240      -0.04060385
C        1.07461755      -0.86212659       1.24063213       0.00006778       0.01462320       0.02944183       0.29707026       0.01619447      -0.06311076
N        0.97579745      -1.46453108       2.24507184      -0.05826471       0.00908172       0.05853531       0.08461435       0.03823285      -0.08030383
C        0.77124369       2.06127176       1.17254517       0.03380571       0.02214207       0.01274530       0.03417777       0.11749915      -0.00086363
N        0.40751229       2.65284695       2.11801894      -0.00337111       0.00247330       0.03452821      -0.04091287       0.00553570       0.03257977
11
Properties=species:S:1:pos:R:3:mp2_forces:R:3:forces:R:3 R1=H R2=CN R3=CN R4=H lg=F nu=F rxn-id=379 mp2_energy=-12585.86694622611 energy=-12585.157310077018 free_energy=-12585.866950005744 pbc="F F F"
C        1.04244087      -0.11075441       0.00307406       0.01249662      -0.00963594      -0.09699592      -1.11983601       0.15367268       0.01065011
C        1.29505680       1.38817424      -0.01735247      -0.00925827      -0.00917100      -0.00514619      -0.03063161       0.00801220       0.00317924
H        2.35169957       1.62274112      -0.12269789       0.02185233       0.02075364       0.00021398       0.00497570      -0.19816552       0.01155779
F       -0.60661466       0.05388437      -0.01634264       0.02964338      -0.07312648       0.01145163       0.28928549      -0.05666622      -0.02828288
F        2.90302422      -0.43426389      -0.04630822       0.00308845       0.02594362      -0.03014148       0.38178803      -0.09270786       0.01186078
H        1.06728630      -0.65352806      -0.92576709      -0.04335756       0.01039289      -0.03322794       0.18728506       0.00507513       0.04648599
H        0.73444603       1.77218257      -0.87214977       0.01329738      -0.01347703       0.01859527       0.04385069       0.10400836      -0.02541645
C        1.06005188      -0.86310769       1.24441371       0.00006778       0.01462320       0.02944183       0.20625431      -0.00885117      -0.01291690
N        0.97187303      -1.46593128       2.24847565      -0.05826471       0.00908172       0.05853531       0.04634680       0.01691461      -0.03219348
C        0.76907106       2.05520464       1.17260918       0.03380571       0.02214207       0.01274530       0.01968984       0.07083077      -0.00304921
N        0.40889754       2.65226561       2.11617924      -0.00337111       0.00247330       0.03452821      -0.02900830      -0.00212298       0.01812500
11
Properties=species:S:1:pos:R:3:mp2_forces:R:3:forces:R:3 R1=H R2=CN R3=CN R4=H lg=F nu=F rxn-id=379 mp2_energy=-12585.86694622611 energy=-12585.087616486937 free_energy=-12585.866950005744 pbc="F F F"
C        1.11981356      -0.12122092       0.00214968       0.01249662      -0.00963594      -0.09699592      -0.20263898       0.02922673      -0.00133692
C        1.29736390       1.38775651      -0.01769079      -0.00925827      -0.00917100      -0.00514619      -0.00234502       0.00424326      -0.00182589
H        2.35169977       1.63683173      -0.12304940       0.02185233       0.02075364       0.00021398       0.00536888      -0.02950627       0.00652895
F       -0.62703212       0.05828079      -0.01350294       0.02964338      -0.07312648       0.01145163       0.05166583      -0.00464276       0.00598239
F        2.87687016      -0.42888860      -0.04761946       0.00308845       0.02594362      -0.03014148       0.06748978      -0.02566124      -0.00100853
H        1.05402097      -0.65415771      -0.92895434      -0.04335756       0.01039289      -0.03322794       0.02972617      -0.00626691       0.00126733
H        0.73213105       1.76540372      -0.87086978       0.01329738      -0.01347703       0.01859527       0.01551175       0.02512469      -0.00976108
C        1.04604802      -0.86261830       1.24608638       0.00006778       0.01462320       0.02944183       0.03914577      -0.00444595       0.00921396
N        0.96908507      -1.46644035       2.25001479      -0.05826471       0.00908172       0.05853531       0.01247453       0.00941964      -0.01016774
C        0.76711019       2.04999236       1.17285222       0.03380571       0.02214207       0.01274530      -0.00319489       0.00910262      -0.00049259
N        0.41012206       2.65192800       2.11471740      -0.00337111       0.00247330       0.03452821      -0.01320381      -0.00659381       0.00160013
11
Properties=species:S:1:pos:R:3:mp2_forces:R:3:forces:R:3 R1=H R2=CN R3=CN R4=H lg=F nu=F rxn-id=379 mp2_energy=-12585.86694622611 energy=-12585.118444388629 free_energy=-12585.866950005744 pbc="F F F"
C        1.19827206      -0.13193052       0.00166483       0.01249662      -0.00963594      -0.09699592       0.77889299      -0.10502394      -0.00822580
C        1.29898212       1.38620047      -0.01768394      -0.00925827      -0.00917100      -0.00514619       0.01879409      -0.01387575      -0.00259247
H        2.35137399       1.64938089      -0.12368625       0.02185233       0.02075364       0.00021398       0.00172099       0.12896468      -0.00199723
F       -0.65159490       0.06237567      -0.01145054       0.02964338      -0.07312648       0.01145163      -0.25018682       0.04632655       0.03273002
F        2.85423596      -0.42484578      -0.04972190       0.00308845       0.02594362      -0.03014148      -0.22123771       0.02860276      -0.02488142
H        1.04105593      -0.65167973      -0.92662679      -0.04335756       0.01039289      -0.03322794      -0.13267055       0.02078949       0.02299531
H        0.72990488       1.75786422      -0.86983149       0.01329738      -0.01347703       0.01859527      -0.01283184      -0.06795543       0.00358100
C        1.03205166      -0.86039836       1.24553842       0.00006778       0.01462320       0.02944183      -0.13715291       0.02156500       0.00473223
N        0.96649853      -1.46594943       2.24935994      -0.05826471       0.00908172       0.05853531      -0.02056238       0.01428151      -0.01517183
C        0.76524303       2.04435478       1.17339040       0.03380571       0.02214207       0.01274530      -0.02628607      -0.06148869       0.00589153
N        0.41120938       2.65149501       2.11318108      -0.00337111       0.00247330       0.03452821       0.00152020      -0.01218617      -0.01706134
11
Properties=species:S:1:pos:R:3:mp2_forces:R:3:forces:R:3 R1=H R2=CN R3=CN R4=H lg=F nu=F rxn-id=379 mp2_energy=-12585.86694622611 energy=-12585.238870414036 free_energy=-12585.866950005744 pbc="F F F"
C        1.27698322      -0.14314296       0.00132667       0.01249662      -0.00963594      -0.09699592       1.39373224      -0.19760875      -0.00961105
C        1.30128781       1.38334120      -0.01736688      -0.00925827      -0.00917100      -0.00514619       0.04306343      -0.04891297       0.00213708
H        2.35097763       1.66353126      -0.12455866       0.02185233       0.02075364       0.00021398      -0.00242128       0.25360409      -0.01307284
F       -0.67990639       0.06680278      -0.00932773       0.02964338      -0.07312648       0.01145163      -0.50565356       0.08223679       0.04977264
F        2.83520528      -0.42203884      -0.05289249       0.00308845       0.02594362      -0.03014148      -0.33453654       0.04044605      -0.05680810
H        1.02819006      -0.64665598      -0.91948074      -0.04335756       0.01039289      -0.03322794      -0.23128027       0.08546127       0.12603871
H        0.72757910       1.74829154      -0.86873133       0.01329738      -0.01347703       0.01859527      -0.03276916      -0.16160030       0.01271669
C        1.01800933      -0.85691851       1.24295192       0.00006778       0.01462320       0.02944183      -0.24921783       0.06201294      -0.03668311
N        0.96317619      -1.46454473       2.24697528      -0.05826471       0.00908172       0.05853531      -0.05369056       0.03457627      -0.05078451
C        0.76350878       2.03748319       1.17410511       0.03380571       0.02214207       0.01274530      -0.03768064      -0.12793439       0.01331272
N        0.41222163       2.65071829       2.11113261      -0.00337111       0.00247330       0.03452821       0.01045417      -0.02228100      -0.03701821
11
Properties=species:S:1:pos:R:3:mp2_forces:R:3:forces:R:3 R1=H R2=CN R3=CN R4=H lg=F nu=F rxn-id=379 mp2_energy=-12585.86694622611 energy=-12585.395445896318 free_energy=-12585.866950005744 pbc="F F F"
C        1.35563916      -0.15418332       0.00177670       0.01249662      -0.00963594      -0.09699592       1.13368921      -0.15857848       0.00231960
C        1.30677869       1.37823662      -0.01622224      -0.00925827      -0.00917100      -0.00514619       0.07709281      -0.07043392       0.00887458
H        2.35070965       1.68482720      -0.12526266       0.02185233       0.02075364       0.00021398      -0.00422245       0.30645369      -0.02507074
F       -0.71646754       0.07266037      -0.00619654       0.02964338      -0.07312648       0.01145163      -0.52437660       0.08695572       0.05839883
F        2.82687715      -0.42296676      -0.05945561       0.00308845       0.02594362      -0.03014148      -0.11536415      -0.01621725      -0.07853836
H        1.01325200      -0.63698710      -0.90435475      -0.04335756       0.01039289      -0.03322794      -0.20671541       0.13417068       0.21639609