16
Properties=species:S:1:pos:R:3:mp2_forces:R:3:forces:R:3 R1=H R2=CH3 R3=CH3 R4=CN lg=F nu=Br rxn-id=640 mp2_energy=-79514.92039473586 energy=-79514.9203959567 free_energy=-79514.9203959567 pbc="F F F"
C        0.57606478      -0.06903864       0.06229606       0.02920701      -0.01492754      -0.03082417       0.02925042      -0.01503585      -0.03076961
C        0.98364946       1.40231821       0.03422537       0.00837166       0.01502411      -0.00948676       0.00832007       0.01498709      -0.00950088
H        2.07980380       1.38331560      -0.00698476       0.01533778       0.02629452       0.01575901       0.01537518       0.02629205       0.01575001
F       -0.83134623      -0.14022052       0.02657952       0.01258213      -0.03241427       0.02338573       0.01257387      -0.03236310       0.02336124
Br       3.85702382      -0.69277508      -1.00706161       0.01003834       0.06068870       0.05330160       0.01003912       0.06069045       0.05330077
H        0.95669575      -0.54522148      -0.83924591      -0.01608811      -0.00954505      -0.04054604      -0.01609847      -0.00952633      -0.04052910
C        1.08390270      -0.80034600       1.28668978      -0.02866585       0.01404798      -0.00916948      -0.02862370       0.01405375      -0.00919317
H        2.11848516      -0.51653590       1.48057623      -0.01830453      -0.04375590      -0.01750779      -0.01834236      -0.04377590      -0.01750617
H        0.45090150      -0.58105495       2.15002796       0.00539119       0.03524148       0.01996197       0.00539613       0.03523845       0.01994761
H        1.07953439      -1.87599412       1.10286502      -0.06268928       0.01834919       0.02661031      -0.06269861       0.01838824       0.02661840
C        0.46681467       2.20194633       1.23686031       0.02568001      -0.00908819      -0.00933905       0.02569784      -0.00908015      -0.00934109
H       -0.62207812       2.13898196       1.30133366       0.03658202      -0.03942842      -0.04078081       0.03654887      -0.03943146      -0.04077818
H        0.89263696       1.81686055       2.16513834       0.02606140      -0.01397487      -0.01952990       0.02606658      -0.01398232      -0.01950946
H        0.74307763       3.25467110       1.14548729       0.02195028      -0.00902508       0.00509925       0.02195187      -0.00899939       0.00509899
C        0.52358513       2.03365293      -1.20682822      -0.02206329       0.00554192       0.02676874      -0.02210717       0.00557412       0.02669202
N        0.14903984       2.58288510      -2.17458993      -0.04339075      -0.00302856       0.00629737      -0.04334959      -0.00302967       0.00635861
16
Properties=species:S:1:pos:R:3:mp2_forces:R:3:forces:R:3 R1=H R2=CH3 R3=CH3 R4=CN lg=F nu=Br rxn-id=640 mp2_energy=-79514.92039473586 energy=-79514.93088171343 free_energy=-79514.9203959567 pbc="F F F"
C        0.58206070      -0.06797484       0.05476247       0.02920701      -0.01492754      -0.03082417      -0.00073618      -0.00500399      -0.00346254
C        0.99984243       1.40165002       0.02809850       0.00837166       0.01502411      -0.00948676      -0.00504627      -0.00372674      -0.00308379
H        2.09600479       1.38422900      -0.01302856       0.01533778       0.02629452       0.01575901      -0.00515393      -0.00345654      -0.01083056
F       -0.82620521      -0.12891958       0.01105124       0.01258213      -0.03241427       0.02338573       0.00049179      -0.01242231      -0.01456579
Br       3.83847614      -0.64094115      -1.03076595       0.01003834       0.06068870       0.05330160       0.04118656       0.03175049       0.03019392
H        0.96141641      -0.55245043      -0.84347936      -0.01608811      -0.00954505      -0.04054604       0.01035932      -0.00451095       0.00047843
C        1.06197061      -0.79015756       1.29565703      -0.02866585       0.01404798      -0.00916948      -0.00614807      -0.00261209      -0.00149321
H        2.08766290      -0.50048245       1.52215283      -0.01830453      -0.04375590      -0.01750779       0.01223740      -0.03731959      -0.03229884
H        0.40200369      -0.56729624       2.13817691       0.00539119       0.03524148       0.01996197       0.02003701       0.03608121       0.01060913
H        1.06504072      -1.86642261       1.12013591      -0.06268928       0.01834919       0.02661031      -0.05419299      -0.00733188       0.01478715
C        0.48687050       2.18591399       1.23996288       0.02568001      -0.00908819      -0.00933905       0.00476861      -0.00078760      -0.00062466
H       -0.59537658       2.07073131       1.32734477       0.03658202      -0.03942842      -0.04078081       0.00311011       0.01356550       0.00157341
H        0.95437089       1.81928828       2.15565594       0.02606140      -0.01397487      -0.01952990       0.00230755      -0.00535924      -0.00125305
H        0.71547622       3.24913667       1.14265751       0.02195028      -0.00902508       0.00509925       0.01766831      -0.00343486      -0.00150194
C        0.53174456       2.03259740      -1.20881796      -0.02206329       0.00554192       0.02676874      -0.01581992      -0.00096208       0.00200443
N        0.14643248       2.56454328      -2.18219505      -0.04339075      -0.00302856       0.00629737      -0.02506931       0.00553067       0.00946791
16
Properties=species:S:1:pos:R:3:mp2_forces:R:3:forces:R:3 R1=H R2=CH3 R3=CH3 R4=CN lg=F nu=Br rxn-id=640 mp2_energy=-79514.92039473586 energy=-79514.91498373894 free_energy=-79514.9203959567 pbc="F F F"
C        0.58372133      -0.06360295       0.05750647       0.02920701      -0.01492754      -0.03082417      -0.00218171      -0.00673721      -0.00422780
C        1.00522370       1.40490867       0.03025079       0.00837166       0.01502411      -0.00948676      -0.00921225      -0.00491562      -0.00194813
H        2.10140374       1.38715930      -0.00551433       0.01533778       0.02629452       0.01575901      -0.00930987      -0.00640460      -0.01049216
F       -0.82559667      -0.11812381       0.02051705       0.01258213      -0.03241427       0.02338573      -0.00039432      -0.01984558      -0.02066379
Br       3.79476273      -0.67440467      -1.06137982       0.01003834       0.06068870       0.05330160       0.05353619       0.02551948       0.02666881
H        0.95531030      -0.54879180      -0.84312164      -0.01608811      -0.00954505      -0.04054604       0.01563807      -0.00447519       0.00099250
C        1.06559181      -0.78771999       1.29836633      -0.02866585       0.01404798      -0.00916948      -0.00699165      -0.00197895      -0.00157580
H        2.06846439      -0.45615520       1.56548351      -0.01830453      -0.04375590      -0.01750779       0.01534034      -0.03508764      -0.03865713
H        0.37109693      -0.61131959       2.12410430       0.00539119       0.03524148       0.01996197       0.02067630       0.04117093       0.01436010
H        1.12697128      -1.85854090       1.10365702      -0.06268928       0.01834919       0.02661031      -0.05671179      -0.01000174       0.01666093
C        0.48534942       2.18706023       1.24041491       0.02568001      -0.00908819      -0.00933905       0.00368829       0.00034717       0.00057292
H       -0.59459740       2.05495293       1.33035318       0.03658202      -0.03942842      -0.04078081       0.00060671       0.02318358       0.00261316
H        0.96024908       1.82847729       2.15558566       0.02606140      -0.01397487      -0.01952990      -0.00194709      -0.00601347       0.00088312
H        0.69767972       3.25335214       1.14031457       0.02195028      -0.00902508       0.00509925       0.02411282      -0.00360168      -0.00132658
C        0.54514341       2.03408647      -1.21043329      -0.02206329       0.00554192       0.02676874      -0.01953925      -0.00030302       0.00386830
N        0.16701745       2.56210697      -2.18873560      -0.04339075      -0.00302856       0.00629737      -0.02731078       0.00914356       0.01227157
16
Properties=species:S:1:pos:R:3:mp2_forces:R:3:forces:R:3 R1=H R2=CH3 R3=CH3 R4=CN lg=F nu=Br rxn-id=640 mp2_energy=-79514.92039473586 energy=-79514.89740336487 free_energy=-79514.9203959567 pbc="F F F"
C        0.58563380      -0.05635316       0.06128319       0.02920701      -0.01492754      -0.03082417      -0.00948734      -0.01110150      -0.00514417
C        1.01496395       1.41015486       0.03000131       0.00837166       0.01502411      -0.00948676      -0.02059929      -0.00889533       0.00204640
H        2.11117901       1.39448994      -0.00055886       0.01533778       0.02629452       0.01575901      -0.02066250      -0.02078688      -0.00759312
F       -0.82578822      -0.09538666       0.04409487       0.01258213      -0.03241427       0.02338573      -0.00644651      -0.03760377      -0.03513257
Br       3.74652624      -0.70005775      -1.06663769       0.01003834       0.06068870       0.05330160       0.08389844       0.01573143       0.01260231
H        0.93618139      -0.54445937      -0.84554562      -0.01608811      -0.00954505      -0.04054604       0.02557206      -0.00389490       0.00266501
C        1.07372177      -0.78747393       1.29785978      -0.02866585       0.01404798      -0.00916948      -0.01104502      -0.00130007      -0.00169535
H        2.05443791      -0.42352517       1.60232960      -0.01830453      -0.04375590      -0.01750779       0.01324099      -0.02599405      -0.04955834
H        0.35155069      -0.65704177       2.10835045       0.00539119       0.03524148       0.01996197       0.02134937       0.04227680       0.02065830
H        1.18529342      -1.84979280       1.08188171      -0.06268928       0.01834919       0.02661031      -0.05606726      -0.01082074       0.01890416
C        0.48432148       2.18754658       1.23809848       0.02568001      -0.00908819      -0.00933905       0.00212662       0.00460547       0.00437907
H       -0.59339732       2.03764784       1.32302242       0.03658202      -0.03942842      -0.04078081      -0.00330202       0.04295217       0.01361093
H        0.96099001       1.83135881       2.15339223       0.02606140      -0.01397487      -0.01952990      -0.00376317       0.00092251       0.00575626
H        0.68168676       3.25689986       1.14169609       0.02195028      -0.00902508       0.00509925       0.03419609      -0.00165608      -0.00539034
C        0.55901912       2.03489102      -1.21445021      -0.02206329       0.00554192       0.02676874      -0.02492819       0.00019450       0.00799945
N        0.18147124       2.55454678      -2.19744864      -0.04339075      -0.00302856       0.00629737      -0.02408227       0.01537044       0.01589201
16
Properties=species:S:1:pos:R:3:mp2_forces:R:3:forces:R:3 R1=H R2=CH3 R3=CH3 R4=CN lg=F nu=Br rxn-id=640 mp2_energy=-79514.92039473586 energy=-79514.8819796032 free_energy=-79514.9203959567 pbc="F F F"
C        0.59006407      -0.04947369       0.06347173       0.02920701      -0.01492754      -0.03082417      -0.02287081      -0.01547896      -0.00424280
C        1.02716697       1.41544081       0.02697922       0.00837166       0.01502411      -0.00948676      -0.03703238      -0.01446381       0.00772408
H        2.12340371       1.40747580       0.00008671       0.01533778       0.02629452       0.01575901      -0.03670920      -0.05291973      -0.00562215
F       -0.82348401      -0.06991255       0.06975440       0.01258213      -0.03241427       0.02338573      -0.01811347      -0.06102154      -0.05667007
Br       3.70679268      -0.69895771      -1.04982772       0.01003834       0.06068870       0.05330160       0.12681680       0.00301625      -0.00777041
H        0.91464002      -0.54203540      -0.84996695      -0.01608811      -0.00954505      -0.04054604       0.04327562      -0.00161666       0.00868009
C        1.08158514      -0.78828514       1.29564826      -0.02866585       0.01404798      -0.00916948      -0.01847156       0.00022485      -0.00076162
H        2.05344101      -0.41793199       1.61999986      -0.01830453      -0.04375590      -0.01750779       0.00840776      -0.01094267      -0.06543973
H        0.34658507      -0.67564262       2.09714632       0.00539119       0.03524148       0.01996197       0.02434257       0.03459622       0.03524791
H        1.20852486      -1.84649298       1.06885790      -0.06268928       0.01834919       0.02661031      -0.05345206      -0.00797339       0.01578455
C        0.48486529       2.18446266       1.23453712       0.02568001      -0.00908819      -0.00933905       0.00050573       0.01269116       0.00926592
H       -0.59101683       2.01963846       1.30967953       0.03658202      -0.03942842      -0.04078081      -0.00842772       0.06857729       0.03046136
H        0.95925662       1.82338305       2.14925171       0.02606140      -0.01397487      -0.01952990      -0.00387204       0.01474043       0.01189551
H        0.67194428       3.25625502       1.14821503       0.02195028      -0.00902508       0.00509925       0.04351037       0.00485445      -0.01116217
C        0.56908829       2.03383515      -1.21991867      -0.02206329       0.00554192       0.02676874      -0.03055051       0.00120790       0.01288061
N        0.18493407       2.54168623      -2.20654533      -0.04339075      -0.00302856       0.00629737      -0.01735908       0.02450821       0.01972891
16
Properties=species:S:1:pos:R:3:mp2_forces:R:3:forces:R:3 R1=H R2=CH3 R3=CH3 R4=CN lg=F nu=Br rxn-id=640 mp2_energy=-79514.92039473586 energy=-79514.85516606423 free_energy=-79514.9203959567 pbc="F F F"
C        0.59967183      -0.04327641       0.06503508       0.02920701      -0.01492754      -0.03082417      -0.04337032      -0.01691487      -0.00100557
C        1.04247301       1.42131592       0.02344999       0.00837166       0.01502411      -0.00948676      -0.05717359      -0.02086267       0.01467078
H        2.13852461       1.42930792       0.00145947       0.01533778       0.02629452       0.01575901      -0.05430012      -0.10908650      -0.00570280
F       -0.81596737      -0.04482244       0.09311723       0.01258213      -0.03241427       0.02338573      -0.03675882      -0.08312842      -0.08211572
Br       3.65453157      -0.69354029      -1.04259993       0.01003834       0.06068870       0.05330160       0.18670377      -0.01621560      -0.03268943
H        0.89660369      -0.54120087      -0.85405623      -0.01608811      -0.00954505      -0.04054604       0.07337123       0.00448272       0.01838209
C        1.08879044      -0.78914479       1.29571762      -0.02866585       0.01404798      -0.00916948      -0.03058894       0.00470689       0.00080599
H        2.04964908      -0.41509380       1.64764563      -0.01830453      -0.04375590      -0.01750779       0.00290498       0.01127022      -0.09265560
H        0.33529646      -0.68975910       2.08144033       0.00539119       0.03524148       0.01996197       0.03194089       0.01671235       0.06355073
H        1.22893253      -1.84416063       1.06196146      -0.06268928       0.01834919       0.02661031      -0.05081715       0.00141522       0.00489783
C        0.48602516       2.17941063       1.23075318       0.02568001      -0.00908819      -0.00933905      -0.00165987       0.02416188       0.01490005
H       -0.58654912       1.99386382       1.29723490       0.03658202      -0.03942842      -0.04078081      -0.01647346       0.10029042       0.05040901
H        0.96183318       1.81557231       2.14388252       0.02606140      -0.01397487      -0.01952990      -0.00638567       0.03097001       0.01883533
H        0.65799428       3.25408826       1.15361846       0.02195028      -0.00902508       0.00509925       0.05149875       0.01604576      -0.01360719
C        0.58067803       2.03233227      -1.22578015      -0.02206329       0.00554192       0.02676874      -0.03703134       0.00321885       0.01837414
N        0.18930385       2.52855231      -2.21551045      -0.04339075      -0.00302856       0.00629737      -0.01186033       0.03293377       0.02295036
16
Properties=species:S:1:pos:R:3:mp2_forces:R:3:forces:R:3 R1=H R2=CH3 R3=CH3 R4=CN lg=F nu=Br rxn-id=640 mp2_energy=-79514.92039473586 energy=-79514.78300286648 free_energy=-79514.9203959567 pbc="F F F"
C        0.61998779      -0.03509348       0.06609150       0.02920701      -0.01492754      -0.03082417      -0.09245453      -0.01316916       0.00991779
C        1.06926306       1.43123191       0.01669156       0.00837166       0.01502411      -0.00948676      -0.09921033      -0.03081478       0.02685167
H        2.16403685       1.47899275       0.00278631       0.01533778       0.02629452       0.01575901      -0.08462399      -0.23799814      -0.00481252
F       -0.79874262      -0.00577859       0.13026389       0.01258213      -0.03241427       0.02338573      -0.07488315      -0.12082853      -0.12167001
Br       3.57071208      -0.68454756      -1.02921219       0.01003834       0.06068870       0.05330160       0.31306050      -0.05742527      -0.08499006
H        0.86396712      -0.54297935      -0.86164646      -0.01608811      -0.00954505      -0.04054604       0.15639038       0.02455471       0.03868242
C        1.10225233      -0.79172909       1.29601048      -0.02866585       0.01404798      -0.00916948      -0.06348364       0.01621334       0.00554174
H        2.04699544      -0.42058471       1.69305832      -0.01830453      -0.04375590      -0.01750779      -0.01125041       0.05730538      -0.15697554
H        0.31878348      -0.69997161       2.05202140       0.00539119       0.03524148       0.01996197       0.04588417      -0.03097442       0.13796070
H        1.25237785      -1.84480661       1.05874710      -0.06268928       0.01834919       0.02661031      -0.04941351       0.02710669      -0.02620925
C        0.48754534       2.16913717       1.22380253       0.02568001      -0.00908819      -0.00933905      -0.00671886       0.04981900       0.02455676
H       -0.57855547       1.94982972       1.27279105       0.03658202      -0.03942842      -0.04078081      -0.03355252       0.16234170       0.09004106
H        0.96372693       1.80054997       2.13541534       0.02606140      -0.01397487      -0.01952990      -0.00662233       0.05612316       0.02377274
H        0.63670305       3.24748583       1.16095095       0.02195028      -0.00902508       0.00509925       0.06008250       0.04244233      -0.00876292
C        0.59670392       2.03019539      -1.23432614      -0.02206329       0.00554192       0.02676874      -0.04631955       0.01318804       0.02325616
N        0.19203411       2.51151335      -2.22607653      -0.04339075      -0.00302856       0.00629737      -0.00688471       0.04211594       0.02283926
16
Properties=species:S:1:pos:R:3:mp2_forces:R:3:forces:R:3 R1=H R2=CH3 R3=CH3 R4=CN lg=F nu=Br rxn-id=640 mp2_energy=-79514.92039473586 energy=-79514.64219369803 free_energy=-79514.9203959567 pbc="F F F"
C        0.64676650      -0.03139802       0.06304677       0.02920701      -0.01492754      -0.03082417      -0.22047125       0.00540063       0.03547224
C        1.09786845       1.44002464       0.00919970       0.00837166       0.01502411      -0.00948676      -0.16083747      -0.03858384       0.03395643
H        2.18845266       1.54838687       0.00410412       0.01533778       0.02629452       0.01575901      -0.11517801      -0.42247100      -0.00686612
F       -0.77707696       0.02923562       0.16511584       0.01258213      -0.03241427       0.02338573      -0.09070445      -0.15685740      -0.13785975
Br       3.48034981      -0.66764493      -1.00370518       0.01003834       0.06068870       0.05330160       0.52569893      -0.12486197      -0.17748829
H        0.81884592      -0.54989426      -0.87310424      -0.01608811      -0.00954505      -0.04054604       0.31851791       0.05742346       0.05975200
C        1.12050605      -0.79662515       1.29414400      -0.02866585       0.01404798      -0.00916948      -0.13402929       0.03432157       0.01205958
H        2.04962207      -0.43665432       1.73875007      -0.01830453      -0.04375590      -0.01750779      -0.04470014       0.11838552      -0.25522311
H        0.30443406      -0.69221825       2.01098888       0.00539119       0.03524148       0.01996197       0.05780988      -0.12003280       0.28929986
H        1.26797230      -1.85255442       1.06571202      -0.06268928       0.01834919       0.02661031      -0.05940805       0.06591176      -0.07720810
C        0.48985816       2.15496266       1.21690848       0.02568001      -0.00908819      -0.00933905      -0.01349836       0.09099993       0.03188121
H       -0.56877478       1.90478707       1.24758858       0.03658202      -0.03942842      -0.04078081      -0.05384805       0.23501387       0.13425728
H        0.96531874       1.78419267       2.12890205       0.02606140      -0.01397487      -0.01952990      -0.00076179       0.07367993       0.01336219
H        0.62119448       3.23517695       1.16330839       0.02195028      -0.00902508       0.00509925       0.05513788       0.08791541       0.01609909
C        0.60909221       2.02599235      -1.24101499      -0.02206329       0.00554192       0.02676874      -0.04450743       0.04299273       0.02520513
N        0.19336157       2.49767563      -2.23257538      -0.04339075      -0.00302856       0.00629737      -0.01922029       0.05076222       0.00330035
16
Properties=species:S:1:pos:R:3:mp2_forces:R:3:forces:R:3 R1=H R2=CH3 R3=CH3 R4=CN lg=F nu=Br rxn-id=640 mp2_energy=-79514.92039473586 energy=-79514.39391094726 free_energy=-79514.9203959567 pbc="F F F"
C        0.68593751      -0.03206958       0.05704518       0.02920701      -0.01492754      -0.03082417      -0.77250387       0.05152188       0.09516903
C        1.12644622       1.44715360       0.00276879       0.00837166       0.01502411      -0.00948676      -0.23952357      -0.04985171       0.03506748
H        2.20896997       1.62364406       0.00467646       0.01533778       0.02629452       0.01575901      -0.14059709      -0.59675961      -0.00811929
F       -0.76090127       0.05729178       0.18980566       0.01258213      -0.03241427       0.02338573       0.20298322      -0.18891582      -0.10580865
Br       3.38829185      -0.64478159      -0.97101501       0.01003834       0.06068870       0.05330160       0.83360247      -0.21986590      -0.31871682
H        0.76242342      -0.55988774      -0.88355917      -0.01608811      -0.00954505      -0.04054604       0.58723767       0.07612717       0.04488256
C        1.14410310      -0.80295922       1.29195521      -0.02866585       0.01404798      -0.00916948      -0.25458142       0.05939969       0.00047712
H        2.05743950      -0.45853352       1.78447760      -0.01830453      -0.04375590      -0.01750779      -0.10472778       0.17998386      -0.37368639
H        0.29404171      -0.67142394       1.95971225       0.00539119       0.03524148       0.01996197       0.06100392      -0.23361065       0.51944344
H        1.27802825      -1.86434585       1.07889568      -0.06268928       0.01834919       0.02661031      -0.06924725       0.10016480      -0.12826884
C        0.49261151       2.13903409       1.21106605       0.02568001      -0.00908819      -0.00933905      -0.01513567       0.14487730       0.03197782
H       -0.55901841       1.86405377       1.22265919       0.03658202      -0.03942842      -0.04078081      -0.06438894       0.30336294       0.17986221
H        0.96520813       1.77029833       2.12622271       0.02606140      -0.01397487      -0.01952990       0.00801679       0.07435560      -0.00786853
H        0.61259182       3.21979522       1.16117090       0.02195028      -0.00902508       0.00509925       0.03464692       0.13960378       0.04991907
C        0.61687877       2.01776814      -1.24468972      -0.02206329       0.00554192       0.02676874      -0.02613997       0.11782827      -0.00035236
N        0.19473917       2.48840754      -2.23382267      -0.04339075      -0.00302856       0.00629737      -0.04064542       0.04177842      -0.01397785
16
Properties=species:S:1:pos:R:3:mp2_forces:R:3:forces:R:3 R1=H R2=CH3 R3=CH3 R4=CN lg=F nu=Br rxn-id=640 mp2_energy=-79514.92039473586 energy=-79514.06251141545 free_energy=-79514.9203959567 pbc="F F F"
C        0.74859172      -0.03626054       0.04918581       0.02920701      -0.01492754      -0.03082417      -2.04278725       0.17239326       0.27538446
C        1.14593442       1.45124273       0.00007503       0.00837166       0.01502411      -0.00948676      -0.28723453      -0.04858791       0.02348557
H        2.22034281       1.67205101       0.00516713       0.01533778       0.02629452       0.01575901      -0.13274821      -0.62598107      -0.01018830
F       -0.77734793       0.07278920       0.19827368       0.01258213      -0.03241427       0.02338573       1.08812558      -0.21828415      -0.07728482
Br       3.32091730      -0.62695405      -0.94517409       0.01003834       0.06068870       0.05330160       1.07008051      -0.28902706      -0.42843576
H        0.71501939      -0.56590724      -0.88710130      -0.01608811      -0.00954505      -0.04054604       0.82873411       0.01888346      -0.06962594
C        1.16468762      -0.80778758       1.29198593      -0.02866585       0.01404798      -0.00916948      -0.32917275       0.06969727      -0.03336539
H        2.06552621      -0.47295150       1.81504981      -0.01830453      -0.04375590      -0.01750779      -0.12914759       0.19610832      -0.39920415
H        0.28876570      -0.65304401       1.91738894       0.00539119       0.03524148       0.01996197       0.06229237      -0.28283192       0.64602900
H        1.28396702      -1.87247497       1.08908289      -0.06268928       0.01834919       0.02661031      -0.05876406       0.10191691      -0.14393750
C        0.49397044       2.12746234       1.20853621       0.02568001      -0.00908819      -0.00933905      -0.00477629       0.17763923       0.02542045
H       -0.55376833       1.83985639       1.20815298       0.03658202      -0.03942842      -0.04078081      -0.04782108       0.31349080       0.18679027
H        0.96454839       1.76418013       2.12696061       0.02606140      -0.01397487      -0.01952990       0.01426574       0.05986485      -0.01824904
H        0.61020374       3.20857609       1.15730465       0.02195028      -0.00902508       0.00509925       0.01071895       0.15364230       0.06795358
C        0.61852076       2.00840770      -1.24531884      -0.02206329       0.00554192       0.02676874       0.02243380       0.16693015      -0.00493892
N        0.19791197       2.48425939      -2.23220034      -0.04339075      -0.00302856       0.00629737      -0.06419929       0.03414555      -0.03983352
16
Properties=species:S:1:pos:R:3:mp2_forces:R:3:forces:R:3 R1=H R2=CH3 R3=CH3 R4=CN lg=F nu=Br rxn-id=640 mp2_energy=-79514.92039473586 energy=-79513.68653308282 free_energy=-79514.9203959567 pbc="F F F"
C        0.82203008      -0.04239891       0.03937316       0.02920701      -0.01492754      -0.03082417      -2.74722543       0.28350289       0.45385355
C        1.15622859       1.45300608      -0.00080278       0.00837166       0.01502411      -0.00948676      -0.25322354      -0.01696739       0.01557104
H        2.22510266       1.69460496       0.00545329       0.01533778       0.02629452       0.01575901      -0.09696234      -0.53379773      -0.01178281
F       -0.81641951       0.08067167       0.20099729       0.01258213      -0.03241427       0.02338573       1.54759083      -0.21863823      -0.07935081
Br       3.28257323      -0.61649862      -0.92960500       0.01003834       0.06068870       0.05330160       1.09405188      -0.29441841      -0.43944887
H        0.68530398      -0.56659238      -0.88466658      -0.01608811      -0.00954505      -0.04054604       0.84315625      -0.06891529      -0.21436141
C        1.17646649      -0.81036302       1.29313250      -0.02866585       0.01404798      -0.00916948      -0.28275659       0.04947558      -0.02540946
H        2.07011026      -0.48003119       1.82946549      -0.01830453      -0.04375590      -0.01750779      -0.10326011       0.16852571      -0.33317478
H        0.28643743      -0.64300885       1.89410513       0.00539119       0.03524148       0.01996197       0.06137185      -0.25692161       0.58931484
H        1.28612912      -1.87614549       1.09418157      -0.06268928       0.01834919       0.02661031      -0.04005917       0.08350599      -0.12806108
C        0.49419273       2.12111043       1.20764598       0.02568001      -0.00908819      -0.00933905       0.00689600       0.17204501       0.02016994
H       -0.55204082       1.82881786       1.20142259       0.03658202      -0.03942842      -0.04078081      -0.02316506       0.26756751       0.15737604
H        0.96400458       1.76195785       2.12762357       0.02606140      -0.01397487      -0.01952990       0.01416488       0.04610502      -0.01675892
H        0.61006555       3.20310434       1.15493193       0.02195028      -0.00902508       0.00509925       0.00033461       0.13060614       0.06354091
C        0.61763996       2.00230805      -1.24502418      -0.02206329       0.00554192       0.02676874       0.03868556       0.16415922      -0.01635185
N        0.19996690       2.48290233      -2.23086487      -0.04339075      -0.00302856       0.00629737      -0.05959961       0.02416559      -0.03512634
16
Properties=species:S:1:pos:R:3:mp2_forces:R:3:forces:R:3 R1=H R2=CH3 R3=CH3 R4=CN lg=F nu=Br rxn-id=640 mp2_energy=-79514.92039473586 energy=-79513.33762409218 free_energy=-79514.9203959567 pbc="F F F"