11
Properties=species:S:1:pos:R:3:mp2_forces:R:3 R1=H R2=H R3=H R4=NO2 lg=F nu=Cl rxn-id=0 mp2_energy=-22927.02167808976 pbc="F F F"
C        0.80625279       0.00797389      -0.04437282      -0.53610467       0.15234046      -0.30886869
C        0.39421178       1.39396308      -0.07956512       0.18244337       0.87686376      -0.71998664
H        0.82709890       2.09945223       0.61623892       0.11337326       0.07648388       0.15361270
F       -1.97163979       0.55458914       0.86419871      -1.38212142      -0.66939483       0.66728452
Cl       2.59128662      -0.37290236      -0.40294384       0.53840365      -0.07271852      -0.09382527
H        0.26312627      -0.55285277      -0.79844830       0.04449758      -0.13412976       0.00703994
H        0.65363802      -0.41064861       0.93888312      -0.02175904      -0.17729415       0.26111070
H       -1.21182659       0.97965620       0.53094570       1.15362260       0.60005568      -0.61096306
N        0.27708635       2.01450378      -1.37424199      -0.41349788      -1.29874321       1.10526449
O        0.23027983       3.24658938      -1.44582786       0.18061913       0.60138255      -0.08219268
O        0.09385895       1.27357343      -2.35698797       0.14052342       0.04515415      -0.37847600
11
Properties=species:S:1:pos:R:3:mp2_forces:R:3 R1=H R2=H R3=H R4=NO2 lg=Cl nu=Cl rxn-id=1 mp2_energy=-32724.573729716474 pbc="F F F"
C        0.58681326      -0.05146825       0.03009327       0.32084192       1.22960036      -0.23983364
C        0.19956117       1.41825685       0.03274680       0.04297848      -0.65407584       0.37269666
H        0.81667086       2.05493104       0.69456009      -0.35916372      -0.40091068      -0.36581034
Cl      -2.65468943      -0.07566924       0.60811987       0.00112146      -0.01351598       0.05009693
Cl       2.35538410      -0.22441247      -0.26065652       0.07591943      -0.10998490       0.10874316
H        0.07316486      -0.56763619      -0.76240716      -0.23493682      -0.21287585      -0.05222974
H        0.33966870      -0.43924197       1.00126895      -0.05837328      -0.41242691       0.27147176
H       -0.86382195       1.43294538       0.30655594       0.00558614       0.05314013       0.17628733
N        0.25509439       2.02502578      -1.29782920       0.14236591       1.75614212      -2.44035972
O        0.22498558       3.28135858      -1.33543389       0.09673333      -1.41140469       0.45524145
O        0.27323640       1.34560695      -2.34893928      -0.03307285       0.17631224       1.66369614
11
Properties=species:S:1:pos:R:3:mp2_forces:R:3 R1=H R2=H R3=H R4=NO2 lg=Cl nu=Br rxn-id=2 mp2_energy=-90227.49900915926 pbc="F F F"
C        0.56036470      -0.03899004       0.04923691       0.88994238       1.07820360      -0.93891671
C        0.17971460       1.44322533       0.01474609       0.28009811      -1.50176543       1.50761355
H        0.82226390       2.04902683       0.71928606      -0.90513583      -0.49278978      -0.96619430
Cl      -2.60498724      -0.13824518       0.60776287      -0.03164656      -0.02807190       0.04793404
Br       2.54172456      -0.24393851      -0.27342783      -0.64819791       0.01179973       0.11629049
H        0.05294030      -0.60201577      -0.71117248      -0.10709844      -0.09186865      -0.43269725
H        0.35799241      -0.50087768       0.98109003      -0.15915969      -0.12951788       1.01877497
H       -0.90079974       1.42845634       0.28627146       0.47168931       0.21778919       0.04316844
N        0.25199916       2.02496764      -1.32624187       0.09866481       0.21012452       0.32182466
O        0.26033774       3.25191551      -1.30071543       0.09298716       0.54815580      -0.75656659
O        0.22663783       1.31168501      -2.32313753       0.01785667       0.17794079       0.03876870
11
Properties=species:S:1:pos:R:3:mp2_forces:R:3 R1=H R2=H R3=H R4=NO2 lg=Br nu=Cl rxn-id=5 mp2_energy=-90227.8349999089 pbc="F F F"
C        0.57753742      -0.02728425      -0.00334025       0.64510308      -1.49921658       0.50249144
C        0.20270331       1.37907037      -0.01213840      -0.88678882       1.22129017       0.21971627
H        0.72995141       2.01419488       0.71232471      -0.03361297      -0.29109128      -0.24802648
Br      -2.81541332      -0.20134810       0.52809230       0.01435412       0.00263526       0.04258510
Cl       2.36492466      -0.21074556      -0.16680118       0.14138035      -0.07636463      -0.09694845
H        0.09539047      -0.62717658      -0.77003305      -0.00109525       0.26672115      -0.10210282
H        0.31635462      -0.46149396       0.96411333      -0.08923974       0.11858447      -0.14736844
H       -0.88014388       1.41202675       0.19578599       0.06741395      -0.02030366      -0.00786601
N        0.36570488       2.03841491      -1.32461337       0.04017767      -0.88697967      -1.54425706
O        0.42571694       3.25037911      -1.33687736       0.12394570       1.47419302       0.51625582
O        0.36835588       1.37023123      -2.36755771      -0.02163814      -0.30946825       0.86552062
11
Properties=species:S:1:pos:R:3:mp2_forces:R:3 R1=H R2=H R3=H R4=NO2 lg=Br nu=Br rxn-id=6 mp2_energy=-147730.70335785375 pbc="F F F"
C        0.61655501      -0.03934172       0.01212364      -0.59917659      -0.77676013       1.85432311
C        0.20218539       1.37752464       0.02730901       0.27903761       1.29249045      -0.53515966
H        0.74146539       2.04492902       0.71754847      -0.05551141      -0.43638044      -0.21125380
Br      -2.82667731      -0.15009454       0.47721309       0.00172707      -0.02943174       0.03876834
Br       2.51501127      -0.25513575      -0.13496595       0.72284647      -0.09557632      -0.22002673
H        0.10255388      -0.60088214      -0.74405362      -0.06673046      -0.16069424      -0.49433558
H        0.33143696      -0.49201542       0.99116637       0.11565282       0.37110759      -0.77444103
H       -0.86914550       1.43794980       0.23615460      -0.16482898      -0.18296802      -0.08555692
N        0.38789764       2.01066972      -1.33557035      -0.78946018       3.95650872       1.79256263
O        0.34316368       3.28021363      -1.35724548       0.29159102      -2.28397583       0.34734522
O        0.44636935       1.33945838      -2.32231283       0.26485260      -1.65432005      -1.71222559
10
Properties=species:S:1:pos:R:3:mp2_forces:R:3 R1=H R2=H R3=H R4=CN lg=Cl nu=Br rxn-id=11 mp2_energy=-87177.5484440468 pbc="F F F"
C        0.61421567      -0.05727455       0.02882925       0.41785160       3.08499454      -0.22497672
C        0.15095939       1.45903166       0.06853222       0.95302381      -1.35602173      -2.46169483
H        0.67834704       2.03822677       0.79275798       0.40162398       0.28860289       0.72955978
Cl      -2.55534608      -0.38665564       0.64568485       0.00479179      -0.02506056       0.04274443
Br       2.50532583      -0.20174662      -0.40495181       0.13914017      -0.08024153       0.07803932
H        0.06429476      -0.58046845      -0.69309065      -0.74940298      -0.71633048      -1.03924457
H        0.42310079      -0.45481073       0.97715500      -0.09155831      -0.79242264       1.41680996
H       -0.90009335       1.37874999       0.26596969      -0.80739732       0.12651293       0.35679733
C        0.31515779       2.12346714      -1.27397345      -0.50651515      -0.91118003       1.83958218
N        0.28618583       2.65299944      -2.31298748       0.23844242       0.38114662      -0.73761687
10
Properties=species:S:1:pos:R:3:mp2_forces:R:3 R1=H R2=H R3=H R4=CN lg=Br nu=Cl rxn-id=12 mp2_energy=-87177.95454722035 pbc="F F F"
C        0.60999870      -0.03278923       0.01908580       0.54814311      -0.37453492      -0.26972221
C        0.14256259       1.37528988       0.04540927       0.70412669       1.64916341       0.09418109
H        0.67246211       1.95163475       0.81860597      -0.02293891      -0.13056065      -0.12018131
Br      -2.74377396      -0.50098775       0.62082589       0.02694565       0.00195102       0.04448030
Cl       2.37007610      -0.16648537      -0.40299660      -0.24557465       0.06835341       0.16782748
H        0.06092212      -0.59081570      -0.71535118      -0.21541257      -0.37034810      -0.22354935
H        0.45422809      -0.45934994       0.99835815       0.02027528      -0.26941149       0.15058486
H       -0.89517169       1.35670526       0.31571401      -0.87558452      -0.21171344       0.23356470
C        0.25862174       2.11408295      -1.21605835       0.00580528      -0.15752844      -0.96293865
N        0.30042430       2.62598933      -2.28122902       0.05421453      -0.20537081       0.88575310
10
Properties=species:S:1:pos:R:3:mp2_forces:R:3 R1=H R2=H R3=H R4=CN lg=Br nu=Br rxn-id=13 mp2_energy=-144680.80377549797 pbc="F F F"
C        0.59961183       0.00996660       0.05510181       0.00047258      -0.99500686      -0.88789733
C        0.11013540       1.41104946       0.05999232       0.46936272       1.05840621      -0.61140624
H        0.66642087       2.01633206       0.76846516      -0.07958014       0.15021536       0.44730974
Br      -2.67768952      -0.51747935       0.73137087      -0.01390576      -0.00895486       0.03906616
Br       2.48679419      -0.16123775      -0.44989043       0.07441674       0.12536319       0.14613756
H        0.05072558      -0.55811900      -0.68887896      -0.04081879      -0.11952696       0.01836497
H        0.45994651      -0.48233747       0.99797505      -0.02044284      -0.06319081       0.51777261
H       -0.95095723       1.37761210       0.28604473      -0.34446447      -0.09482144       0.37252275
C        0.26236662       2.08649041      -1.23491437       0.20244525       2.23555061      -3.92303088
N        0.34455634       2.70119457      -2.29264898      -0.24748528      -2.28803445       3.88116068
12
Properties=species:S:1:pos:R:3:mp2_forces:R:3 R1=H R2=H R3=H R4=CH3 lg=F nu=F rxn-id=15 mp2_energy=-8640.576169982565 pbc="F F F"
C        0.56860924       0.00488276       0.05109184       0.14736251      -0.14427750      -0.06630574
C        0.18381669       1.44721805       0.13499302       0.00687360      -0.25278204      -0.41841996
H        0.95478273       1.99523701       0.65885376       0.45301908       0.30906843       0.24408657
F       -1.92101782      -0.07859657       0.90126433      -0.07143511       0.02028712      -0.00057925
F        1.87772041      -0.16851570      -0.49806874      -0.02012069       0.06371268       0.16115218
H       -0.11450422      -0.54445229      -0.57150398      -0.31588564      -0.09494646      -0.23182329
H        0.51224981      -0.44523077       1.03210723       0.32295589      -0.17220973       0.22340223
H       -0.72460756       1.36022965       0.73404540      -0.31713731       0.10053133       0.00138369
C       -0.10181953       2.04765892      -1.23097470      -1.40131025       0.28550013      -0.32185089
H        0.66959958       1.86120573      -1.98744732       0.01434832      -0.10211007       0.16618054
H       -1.08997982       1.63355830      -1.59225937       1.05821891       0.25002956       0.29004533
H       -0.25117755       3.14156455      -1.16375196       0.12311070      -0.26280344      -0.04727141
12
Properties=species:S:1:pos:R:3:mp2_forces:R:3 R1=H R2=H R3=H R4=CH3 lg=Cl nu=F rxn-id=17 mp2_energy=-18438.811189678883 pbc="F F F"
C        0.44227643      -0.03257105       0.06787925       1.33080468       2.70695222       0.44899751
C       -0.01775442       1.42188704       0.26302209      -0.72187359      -0.63735399      -0.69366620
H        0.67446639       1.96306329       0.91091264       0.20955118      -0.09629726       0.01685898
Cl      -2.77935011      -0.55787755       1.32561769       0.01347966      -0.02645402      -0.01329580
F        1.74898084       0.00535768      -0.55023242      -0.92879999      -0.40563381       0.38936672
H       -0.23151787      -0.56907116      -0.52744613      -0.82351299      -0.85214926      -1.11951198
H        0.51360494      -0.48165965       1.02774750       0.37595119      -0.74008813       0.76502345
H       -1.00324657       1.35409028       0.78429828       0.65883197       0.08410430      -0.43760001
C       -0.14831132       2.13287526      -1.10850825      -1.70185861       0.90483054       2.20661923
H        0.71669709       2.02441080      -1.68212466       1.57262975       0.01470655      -0.93354176
H       -0.98593353       1.72356625      -1.64636597      -0.40871951      -0.36659410      -0.32157571
H       -0.40529424       3.20563727      -0.93278603       0.42351625      -0.58602305      -0.30767442
12
Properties=species:S:1:pos:R:3:mp2_forces:R:3 R1=H R2=H R3=H R4=CH3 lg=Br nu=Br rxn-id=18 mp2_energy=-143241.7699465255 pbc="F F F"
C        0.55746284       0.00962528       0.07537336      -0.17291585       0.13901795      -1.16270055
C        0.21621267       1.48246582       0.09468480      -0.82185609      -0.23188925       0.50124992
H        0.93401053       2.04411959       0.71243227       0.01005513      -0.14603514      -0.24483614
Br      -2.84313539      -0.37605330       0.84934626       0.02119036       0.00030258      -0.00854260
Br       2.43334855      -0.29591335      -0.52272038      -0.17332322      -0.01130228       0.06040827
H       -0.09261015      -0.56407727      -0.61951537       0.44834054       0.43164811       0.56207754
H        0.47928554      -0.39462540       1.05530297       0.03178374      -0.56895043       0.74984869
H       -0.76099218       1.49752270       0.64124649       0.57745444       0.06881294      -0.49894870
C        0.05414694       2.08267294      -1.28697506      -1.83031299       1.42277369       0.20724279
H        0.92761973       1.98824416      -1.88364257       0.98619736      -0.14189196      -0.58060059
H       -0.80778862       1.62831594      -1.84446944       0.69968779       0.25759324       0.62699812
H       -0.17276201       3.19343415      -1.18774913       0.22369880      -1.22007947      -0.21219676
11
Properties=species:S:1:pos:R:3:mp2_forces:R:3 R1=H R2=H R3=H R4=NH2 lg=F nu=F rxn-id=20 mp2_energy=-9076.876805682325 pbc="F F F"
C        0.56949781       0.00759880       0.01087147       1.61121251       0.12348187      -2.96348531
C        0.35135764       1.49669700      -0.01096913      -1.32280176       1.10178999       0.33273803
H        1.28687500       2.05314301      -0.14144430       0.21426098      -0.38805147       0.19212968
F       -2.08939544       0.05460403      -0.08539058       0.04098827       0.01223386       0.07865026
F        1.98317566      -0.25426665       0.08550245      -0.08984012       0.02078624       0.30431838
H        0.27163229      -0.41388195      -0.98044344      -0.03009010       0.34361154       0.99741339
H        0.12476523      -0.51902608       0.78627922      -1.00862255      -0.73976945       1.37315787
H       -0.11041137       1.80443591       0.97726704       0.40653870      -0.21757442      -0.82383463
N       -0.52395799       1.82825490      -1.16868624       0.31128586      -0.78372682       0.45827464
H       -0.83250853       2.77631111      -1.06383631      -0.08986118       0.65019097       0.10871463
H       -1.34786519       1.22280652      -0.93961364      -0.04307063      -0.12297231      -0.05807695
11
Properties=species:S:1:pos:R:3:mp2_forces:R:3 R1=H R2=H R3=H R4=NH2 lg=F nu=Cl rxn-id=21 mp2_energy=-18873.533725663725 pbc="F F F"
C        0.70364854       0.04261990       0.00698213      -0.20281002      -0.96351665      -1.54671822
C        0.50207597       1.54995476      -0.03460376      -1.15927884      -0.22149625       2.34186737
H        1.44548318       2.05001595      -0.09604740       0.80708147       0.42850194      -0.02117448
F       -1.91560071       0.20271955      -0.09189357      -0.14623406      -0.12671997       0.16004249
Cl       2.49942211      -0.40532026       0.06863583      -0.25157719       0.07623508       0.18861122
H        0.33738632      -0.38994745      -0.96388433       0.38027995       0.47369243       1.10674687
H        0.19807541      -0.48561935       0.81244470       0.13657364       0.28378507      -0.06646046
H        0.00508304       1.82750207       0.97560995       0.75422944      -0.27283870      -1.26159825
N       -0.32202853       1.86658130      -1.15811193      -0.62344877       1.98296465      -0.90863559
H       -0.60921312       2.87185973      -1.08533991       0.57159039      -1.04599039      -0.11700704
H       -1.18573630       1.34140103      -0.94870652      -0.26640601      -0.61461721       0.12432610
11
Properties=species:S:1:pos:R:3:mp2_forces:R:3 R1=H R2=H R3=H R4=NH2 lg=Cl nu=F rxn-id=23 mp2_energy=-18874.87772043622 pbc="F F F"
C        0.56851059      -0.01401422       0.03073781       0.94759896       0.73894332       0.12794254
C        0.12866712       1.43690159       0.06274263      -1.43791231       0.46184813       0.18161505
H        1.00461854       2.04706061       0.29489709       0.08081157       0.03338354      -0.25926861
Cl      -2.83092313      -0.24296860       0.01439020       0.01045271      -0.01355244      -0.00874577
F        1.99023314      -0.03796345      -0.04561380      -0.16014406      -0.22208757       0.05036647
H        0.20796620      -0.51889677      -0.82739793      -0.44477230      -0.35877505      -0.99164979
H        0.28253253      -0.59708719       0.88892788      -0.09315995       0.02490136       0.56466151
H       -0.59892021       1.58391617       0.88828086       0.38596823      -0.23979379      -0.17915255
N       -0.51780927       1.85911137      -1.21466814       3.16807205      -2.32061138       0.43898257
H       -0.66452949       2.80983545      -1.20586380      -0.73483952       2.43670414       0.13139505
H       -1.35064751       1.34362281      -1.24636528      -1.72207537      -0.54096027      -0.05614647
11
Properties=species:S:1:pos:R:3:mp2_forces:R:3 R1=H R2=H R3=H R4=NH2 lg=Br nu=Br rxn-id=25 mp2_energy=-143677.89177749478 pbc="F F F"
C        0.66822538       0.04362991       0.04002078       0.43799826      -1.11239097       0.60492428
C        0.29205514       1.48912900       0.10389806      -0.46066498       0.43548553      -1.00054129
H        1.15094718       2.11340088       0.36430377      -0.02855743      -0.05651438       0.11892109
Br      -2.82464987      -0.03497192      -0.01880154      -0.03803565      -0.00278869      -0.00209208
Br       2.58649587      -0.24095480      -0.25931489       0.40770690       0.07566396      -0.13123254
H        0.20410070      -0.50881391      -0.75991853      -0.38788261       0.21739042      -0.30326370
H        0.47987639      -0.52538905       0.94851566      -0.14276592       0.27710873       0.14838495
H       -0.50174623       1.61131975       0.84435460       0.01939981      -0.07269726       0.14648747
N       -0.17491439       1.88798878      -1.25118031      -0.02609634      -0.29377691       0.54615077
H       -0.32972767       2.87845304      -1.20233191      -0.05498549       0.61639720      -0.17091178
H       -1.11351862       1.48186027      -1.33205552       0.27388343      -0.08387763       0.04317283
11
Properties=species:S:1:pos:R:3:mp2_forces:R:3 R1=H R2=H R3=NO2 R4=H lg=Cl nu=Cl rxn-id=26 mp2_energy=-32724.517721490156 pbc="F F F"
C        0.57084723      -0.02962598       0.01206292       0.26171020      -1.06810204      -0.33324349
C        0.14970459       1.38657509      -0.00399218       0.05955150       0.26013666       0.09767684
H        0.73690109       2.00374264      -0.66874842       0.19647801       0.14057910      -0.19170270
Cl      -2.63223536      -0.16884934      -0.54655446      -0.06170601      -0.03086049      -0.05440018
Cl       2.37688583      -0.20958586       0.16944585      -0.16779613       0.16650077       0.22062930
H        0.36382314      -0.45914939      -0.97091012      -0.37289449      -0.07097061       0.39220377
H        0.08697998      -0.59263927       0.82676387       0.26631100       0.24438757      -0.58727696
H       -0.91209969       1.44288161      -0.28897689       0.10192268      -0.20411476       0.23718692
N        0.28635355       2.00552118       1.32982979      -1.00776747       3.97925820      -0.28636125
O        0.20951190       3.28791187       1.31719708       0.48851405      -3.01308715       0.15853576
O        0.31208707       1.33261273       2.34467643       0.23567665      -0.40372726       0.34675200
11
Properties=species:S:1:pos:R:3:mp2_forces:R:3 R1=H R2=H R3=NO2 R4=H lg=Cl nu=Br rxn-id=27 mp2_energy=-90227.29051779196 pbc="F F F"
C        0.61678360      -0.01772818      -0.03896789      -0.10021712      -1.46483333       1.53785886
C        0.19930282       1.38767480      -0.04224405      -1.72418421       0.71237816       0.92831032
H        0.73312935       2.01468697      -0.71552796       0.53694402       0.57989104      -0.47780934
Cl      -2.62800664      -0.17788734      -0.57733106      -0.01876876      -0.03951842      -0.04754066
Br       2.56921921      -0.20317099       0.25118957      -0.25683928      -0.01631582      -0.04699639
H        0.38762431      -0.45541550      -0.98608927      -0.02846176      -0.27246582      -0.68814691
H        0.08239282      -0.64423887       0.73783818       0.73733960       0.97435567      -0.83638323
H       -0.89574285       1.38274914      -0.29879189       0.73745412      -0.03453075       0.18367863
N        0.26562289       2.05322387       1.33679694       0.04494623       3.36874518      -6.03252965
O        0.25408975       3.28277646       1.33457942       0.05265131       0.28481131      -0.21017914
O        0.26941471       1.38446286       2.26962536       0.01913586      -4.09251722       5.68973751
11
Properties=species:S:1:pos:R:3:mp2_forces:R:3 R1=H R2=H R3=NO2 R4=H lg=Br nu=Cl rxn-id=29 mp2_energy=-90227.69316764607 pbc="F F F"
C        0.57884282      -0.01761953      -0.03724167       0.46422194      -0.90944694       0.18507083
C        0.17797015       1.41414150       0.00275343      -1.21726577       0.18241852       0.15865165
H        0.69040252       2.03692727      -0.71107902       0.25855940       0.23520401      -0.25916766
Br      -2.84201946      -0.18399877      -0.49061484      -0.00659467      -0.01037604      -0.04540224
Cl       2.39281913      -0.20846450       0.14426257      -0.37281819       0.10060028      -0.16723070
H        0.28641064      -0.48214800      -0.99879674       0.14080182       0.41714417       0.57656284
H        0.14182295      -0.59913621       0.78438568       0.00035429       0.36148167      -0.34602934
H       -0.92237808       1.41929697      -0.20036685       0.57292436       0.03931647       0.14767571
N        0.35512295       2.09542314       1.34347173       0.08012384      -4.21583479      -1.61182109
O        0.40693316       3.26294416       1.35296543       0.10164308       5.21353106      -0.28639614
O        0.42958824       1.39289302       2.31721303      -0.02195010      -1.41403841       1.64808613
11
Properties=species:S:1:pos:R:3:mp2_forces:R:3 R1=H R2=H R3=NO2 R4=H lg=Br nu=Br rxn-id=30 mp2_energy=-147730.7059452838 pbc="F F F"
C        0.65838000      -0.05803628      -0.02674859      -1.42785308       1.37027308       0.09601739
C        0.19167383       1.37744413      -0.03340184      -0.79975242      -0.18791964       2.15805643
H        0.68228532       2.01557638      -0.71182590       0.79090181       0.79443459      -0.84407307
Br      -2.79985925      -0.19777410      -0.46613601      -0.04768989      -0.05158668      -0.05532021
Br       2.51384610      -0.26164570       0.19141650       1.21130303      -0.15118931       0.06381309
H        0.31918068      -0.42856847      -0.96488855       0.02631266      -0.71221758      -0.83359792
H        0.12258787      -0.57682838       0.74015604      -0.13055155      -0.42782800       0.48875537
H       -0.90005637       1.38134664      -0.21900037       0.33039849      -0.18642668       0.05465317
N        0.34615463       2.05649748       1.35019319       0.12831318       0.36132675      -1.42139050
O        0.39304076       3.29614087       1.33237225      -0.03782621      -0.75240150       0.14333724
O        0.37997273       1.35601440       2.35099331      -0.04355608      -0.05646505       0.14974900
13
Properties=species:S:1:pos:R:3:mp2_forces:R:3 R1=H R2=H R3=NO2 R4=NO2 lg=F nu=F rxn-id=32 mp2_energy=-18684.731324586337 pbc="F F F"
C        0.58097329      -0.10054594       0.00035522       0.32706481       0.67937951      -0.75944271
C        0.40281635       1.37392166       0.23954920       0.41331095       0.67210041       1.21088480
H        1.32509170       1.83544245       0.60952776       0.06006304      -0.33820013      -0.03058827
F       -1.49081789      -0.32484055       1.03883666       0.04335467      -0.02593111      -0.10747473
F        1.82799701      -0.13539457      -0.74722902      -0.48096010      -0.11591353       0.23487172
H       -0.23347037      -0.48881958      -0.58950276       0.13942479      -0.16152218       0.03409303
H        0.72385814      -0.62312875       0.92029280      -0.00955493      -0.27782615       0.37836807
N       -0.60439017       1.80888448       1.28395701      -0.83799756      -0.60108524      -0.60457505
O       -1.62953331       2.37271683       0.90320785       0.80286802      -0.05461503       0.42846128
O       -0.23854314       1.60288779       2.42830510       0.00057449       0.36118718       0.20702944
N        0.11973681       2.16731378      -0.96342552      -3.65496657      -6.42495427      -3.11190874
O        0.46684819       3.27561442      -1.04359110       1.95415897       5.33284065       0.27131727
O       -0.53390962       1.57236310      -1.87943370       1.24265943       0.95453989       1.84896390
13
Properties=species:S:1:pos:R:3:mp2_forces:R:3 R1=H R2=H R3=NO2 R4=NO2 lg=Cl nu=F rxn-id=33 mp2_energy=-28482.822252760732 pbc="F F F"
C        0.40462236      -0.03699473       0.05276241       1.18602667       0.94464784      -1.74425337
C        0.39127665       1.42652519       0.33536899      -1.47480181       0.53620299      -0.29436332
H        1.29916442       1.77145692       0.78603301       0.51106436       0.14611849       0.21362657
Cl      -2.21206002      -1.12756878       1.26996891      -0.01881255      -0.03693143       0.01280075
F        1.65079198      -0.18275706      -0.63978546      -0.50395833      -0.20723415       0.17575442
H       -0.40309572      -0.36281576      -0.57991563      -0.14725075      -0.10748812      -0.04096769
H        0.44949342      -0.56541970       0.94693040      -0.03328891      -1.13641013       1.47453735
N       -0.72294788       1.82835829       1.26850191      -0.57270983       0.95610947       0.36635701
O       -1.73749545       2.35417109       0.79867523       0.79619812      -0.55365209       0.08025786
O       -0.46276402       1.69666002       2.46296544       0.04783290      -0.19583745      -0.38669682
N        0.19773795       2.24925857      -0.92660029       1.70248920       1.22174103       1.16922995
O        0.72082666       3.39504230      -0.88439814      -1.08673035      -1.78115693      -0.28116658
O       -0.38145208       1.72337704      -1.85290306      -0.40605871       0.21389048      -0.74511612
13
Properties=species:S:1:pos:R:3:mp2_forces:R:3 R1=H R2=H R3=NO2 R4=NO2 lg=Cl nu=Cl rxn-id=34 mp2_energy=-38279.44830323082 pbc="F F F"
C        0.52767494       0.01552533      -0.01796143       1.04219652      -1.92340075      -0.63343160
C        0.50428574       1.46791441      -0.20349801      -0.49928004       0.47806346       0.62112261
H        1.43171988       1.85967295      -0.59542521       0.22593176       0.20614855      -0.01622451
Cl      -2.38631887      -0.73552215      -0.65740039      -0.00855367      -0.03623276      -0.00590151
Cl       2.15930636      -0.44329110       0.67322963      -0.20365422       0.20692790      -0.02835979
H        0.46529565      -0.50821818      -0.99452307      -0.16883793       0.46561258       0.71517244
H       -0.21580302      -0.37401772       0.65404678      -0.34946335       0.09848447       0.02589737
N        0.22166785       2.21021350       1.10064106       1.08324361       0.00547648      -0.23776006
O        0.68071669       3.36619356       1.13570791      -0.69652764      -0.92962355       0.21294854
O       -0.33060815       1.58280905       2.00247919       0.11973583       0.74432917      -0.29637151
N       -0.55751581       1.86916164      -1.16784756      -0.10856462       0.77538331       0.04301323
O       -1.43155491       2.59301124      -0.74074262      -0.82066393       0.42813128       0.29979638
O       -0.37910935       1.55911382      -2.32470657       0.38443769      -0.51930013      -0.69990158
13
Properties=species:S:1:pos:R:3:mp2_forces:R:3 R1=H R2=H R3=NO2 R4=NO2 lg=Cl nu=Br rxn-id=35 mp2_energy=-95782.36098888125 pbc="F F F"
C        0.58508632       0.01434055       0.01924531      -0.21883105      -0.81640344      -0.02080125
C        0.50954451       1.49821897       0.17222147       1.22394676      -0.38226766       0.62864885
H        1.48156819       1.92463915       0.57805965      -1.33245200      -0.40579002      -0.56891967
Cl      -2.31177825      -0.64568185       0.71051793      -0.02636397      -0.04877324       0.00963957
Br       2.35836764      -0.44639717      -0.71958075      -0.19742750       0.07784341       0.00854010
H       -0.20559474      -0.42225577      -0.60844135       0.42291769       0.44035801       0.11370696
H        0.49836891      -0.46738366       0.98490534       0.12162356      -0.01976756       0.15727199
N       -0.54800037       1.91935079       1.17543802      -1.31035317       2.55710846      -2.20643794