11
Properties=species:S:1:pos:R:3:mp2_forces:R:3 R1=H R2=H R3=H R4=NO2 lg=F nu=Cl rxn-id=0 mp2_energy=-22927.096685691624 pbc="F F F"
C        0.80625279       0.00797389      -0.04437282       0.01595700      -0.00860922      -0.00898888
C        0.39421178       1.39396308      -0.07956512      -0.02010692      -0.00330359       0.00786541
H        0.82709890       2.09945223       0.61623892      -0.00180471       0.01766732      -0.01777514
F       -1.97163979       0.55458914       0.86419871      -0.07612698       0.02582141       0.04520082
Cl       2.59128662      -0.37290236      -0.40294384       0.02764859      -0.00554847      -0.00327959
H        0.26312627      -0.55285277      -0.79844830       0.03417668      -0.00725991      -0.02652672
H        0.65363802      -0.41064861       0.93888312       0.03439349      -0.00230931       0.00216952
H       -1.21182659       0.97965620       0.53094570      -0.05909740      -0.02672954       0.02611663
N        0.27708635       2.01450378      -1.37424199       0.01269064      -0.06266712      -0.02811959
O        0.23027983       3.24658938      -1.44582786       0.03716122       0.03654302      -0.00661521
O        0.09385895       1.27357343      -2.35698797      -0.00489160       0.03639540       0.00995277
11
Properties=species:S:1:pos:R:3:mp2_forces:R:3 R1=H R2=H R3=H R4=NO2 lg=Cl nu=Cl rxn-id=1 mp2_energy=-32724.683510718605 pbc="F F F"
C        0.58681326      -0.05146825       0.03009327      -0.02323988       0.02275278       0.01001575
C        0.19956117       1.41825685       0.03274680      -0.00915879       0.04641860      -0.06757172
H        0.81667086       2.05493104       0.69456009      -0.02625838       0.02411933       0.03400762
Cl      -2.65468943      -0.07566924       0.60811987      -0.01632646      -0.02710554       0.05143352
Cl       2.35538410      -0.22441247      -0.26065652       0.03243308      -0.02559146      -0.03451699
H        0.07316486      -0.56763619      -0.76240716       0.05093222       0.02587367      -0.03638863
H        0.33966870      -0.43924197       1.00126895      -0.02866298      -0.02627437       0.03513721
H       -0.86382195       1.43294538       0.30655594      -0.05061999      -0.01148024       0.00282167
N        0.25509439       2.02502578      -1.29782920       0.05656096       0.02299916      -0.03859611
O        0.22498558       3.28135858      -1.33543389       0.03681601       0.02282418       0.05467990
O        0.27323640       1.34560695      -2.34893928      -0.02247579      -0.07453610      -0.01102222
11
Properties=species:S:1:pos:R:3:mp2_forces:R:3 R1=H R2=H R3=H R4=NO2 lg=Cl nu=Br rxn-id=2 mp2_energy=-90227.65051230778 pbc="F F F"
C        0.56036470      -0.03899004       0.04923691       0.07431718      -0.04744389      -0.01205200
C        0.17971460       1.44322533       0.01474609      -0.02210341      -0.06583472       0.05262538
H        0.82226390       2.04902683       0.71928606      -0.01341035      -0.00175126      -0.05981120
Cl      -2.60498724      -0.13824518       0.60776287      -0.00345107      -0.02188009       0.05016494
Br       2.54172456      -0.24393851      -0.27342783      -0.04018302       0.00562220      -0.02488913
H        0.05294030      -0.60201577      -0.71117248       0.04437437       0.04124286      -0.05875097
H        0.35799241      -0.50087768       0.98109003      -0.04058588       0.06566007       0.02082062
H       -0.90079974       1.42845634       0.28627146      -0.09034371       0.00187684      -0.01736350
N        0.25199916       2.02496764      -1.32624187       0.06343769      -0.01355640       0.03837110
O        0.26033774       3.25191551      -1.30071543       0.04145324       0.02731179      -0.03521477
O        0.22663783       1.31168501      -2.32313753      -0.01350504       0.00875258       0.04609953
11
Properties=species:S:1:pos:R:3:mp2_forces:R:3 R1=H R2=H R3=H R4=NO2 lg=Br nu=Cl rxn-id=5 mp2_energy=-90227.9229227222 pbc="F F F"
C        0.57753742      -0.02728425      -0.00334025       0.03973223       0.03815836       0.01504036
C        0.20270331       1.37907037      -0.01213840      -0.02322922      -0.02176966       0.04330641
H        0.72995141       2.01419488       0.71232471      -0.01768332       0.01724610      -0.02312150
Br      -2.81541332      -0.20134810       0.52809230      -0.00598128      -0.01570532       0.04207557
Cl       2.36492466      -0.21074556      -0.16680118       0.02621813      -0.02402637      -0.01994277
H        0.09539047      -0.62717658      -0.77003305       0.03455424      -0.01294925      -0.07931506
H        0.31635462      -0.46149396       0.96411333      -0.05386498       0.01404022       0.01668370
H       -0.88014388       1.41202675       0.19578599      -0.06906458      -0.00711667       0.01910100
N        0.36570488       2.03841491      -1.32461337       0.04166692       0.04413479       0.05091624
O        0.42571694       3.25037911      -1.33687736       0.03928205      -0.01512267      -0.03215105
O        0.36835588       1.37023123      -2.36755771      -0.01163020      -0.01688954      -0.03259292
11
Properties=species:S:1:pos:R:3:mp2_forces:R:3 R1=H R2=H R3=H R4=NO2 lg=Br nu=Br rxn-id=6 mp2_energy=-147730.8788609236 pbc="F F F"
C        0.61655501      -0.03934172       0.01212364       0.01419081      -0.02861912       0.00475409
C        0.20218539       1.37752464       0.02730901      -0.04611863      -0.01363978       0.03456298
H        0.74146539       2.04492902       0.71754847      -0.02564188       0.01678672       0.01919511
Br      -2.82667731      -0.15009454       0.47721309      -0.00547390      -0.02516578       0.04311339
Br       2.51501127      -0.25513575      -0.13496595       0.03464960      -0.03514527      -0.01940113
H        0.10255388      -0.60088214      -0.74405362       0.04774449      -0.00328471      -0.06883485
H        0.33143696      -0.49201542       0.99116637      -0.00351961       0.00263457       0.03400808
H       -0.86914550       1.43794980       0.23615460      -0.06673751       0.04409437      -0.00132626
N        0.38789764       2.01066972      -1.33557035      -0.03786351       0.01478501      -0.00716568
O        0.34316368       3.28021363      -1.35724548       0.08138018       0.01263901      -0.04921004
O        0.44636935       1.33945838      -2.32231283       0.00738997       0.01491498       0.01030431
10
Properties=species:S:1:pos:R:3:mp2_forces:R:3 R1=H R2=H R3=H R4=CN lg=Cl nu=Br rxn-id=11 mp2_energy=-87177.75964710697 pbc="F F F"
C        0.61421567      -0.05727455       0.02882925       0.00820487      -0.05094704      -0.00972499
C        0.15095939       1.45903166       0.06853222      -0.00542685      -0.02122249      -0.01992374
H        0.67834704       2.03822677       0.79275798      -0.03106872       0.00432685      -0.02866154
Cl      -2.55534608      -0.38665564       0.64568485       0.00739657      -0.00386569       0.04698177
Br       2.50532583      -0.20174662      -0.40495181       0.00460848       0.06794934       0.03471028
H        0.06429476      -0.58046845      -0.69309065      -0.05723632      -0.01657351      -0.05701107
H        0.42310079      -0.45481073       0.97715500       0.01182785      -0.00573890      -0.00918336
H       -0.90009335       1.37874999       0.26596969       0.00486917       0.04611222       0.01608747
C        0.31515779       2.12346714      -1.27397345       0.02170232      -0.01934380      -0.00169738
N        0.28618583       2.65299944      -2.31298748       0.03512267      -0.00069697       0.02842256
10
Properties=species:S:1:pos:R:3:mp2_forces:R:3 R1=H R2=H R3=H R4=CN lg=Br nu=Cl rxn-id=12 mp2_energy=-87178.02285730377 pbc="F F F"
C        0.60999870      -0.03278923       0.01908580      -0.01489926       0.01592956      -0.01545634
C        0.14256259       1.37528988       0.04540927       0.00180979      -0.02876894       0.00741827
H        0.67246211       1.95163475       0.81860597      -0.00380792      -0.02245527      -0.01880092
Br      -2.74377396      -0.50098775       0.62082589       0.01250233       0.00165086       0.04273767
Cl       2.37007610      -0.16648537      -0.40299660       0.00012980       0.05007647       0.03544337
H        0.06092212      -0.59081570      -0.71535118      -0.01850048      -0.03102235      -0.02840006
H        0.45422809      -0.45934994       0.99835815      -0.00978649      -0.01592989      -0.00752854
H       -0.89517169       1.35670526       0.31571401       0.00091183       0.01574054      -0.00474163
C        0.25862174       2.11408295      -1.21605835       0.01124759       0.03266302      -0.07846972
N        0.30042430       2.62598933      -2.28122902       0.02039278      -0.01788401       0.06779791
10
Properties=species:S:1:pos:R:3:mp2_forces:R:3 R1=H R2=H R3=H R4=CN lg=Br nu=Br rxn-id=13 mp2_energy=-144680.99138275444 pbc="F F F"
C        0.59961183       0.00996660       0.05510181       0.00020151      -0.02415896      -0.01675381
C        0.11013540       1.41104946       0.05999232      -0.00097542      -0.02981754      -0.01881648
H        0.66642087       2.01633206       0.76846516       0.00288601       0.00311696       0.00004049
Br      -2.67768952      -0.51747935       0.73137087       0.00494286       0.00443744       0.04042859
Br       2.48679419      -0.16123775      -0.44989043       0.00266639       0.04566691       0.04840134
H        0.05072558      -0.55811900      -0.68887896      -0.03618775      -0.03463303      -0.04237461
H        0.45994651      -0.48233747       0.99797505       0.00915107      -0.00574484      -0.01289707
H       -0.95095723       1.37761210       0.28604473      -0.00051131       0.02090579      -0.00023245
C        0.26236662       2.08649041      -1.23491437      -0.00952875      -0.00994738       0.04645817
N        0.34455634       2.70119457      -2.29264898       0.02735536       0.03017464      -0.04425415
12
Properties=species:S:1:pos:R:3:mp2_forces:R:3 R1=H R2=H R3=H R4=CH3 lg=F nu=F rxn-id=15 mp2_energy=-8640.637465622465 pbc="F F F"
C        0.56860924       0.00488276       0.05109184      -0.00103171      -0.00615324      -0.00339582
C        0.18381669       1.44721805       0.13499302       0.01463606       0.00949839       0.01397197
H        0.95478273       1.99523701       0.65885376      -0.00841663       0.00967657       0.00850622
F       -1.92101782      -0.07859657       0.90126433      -0.02658974       0.02739782      -0.05096823
F        1.87772041      -0.16851570      -0.49806874      -0.05336308       0.01228555      -0.07907125
H       -0.11450422      -0.54445229      -0.57150398       0.04926723      -0.01937650       0.05779843
H        0.51224981      -0.44523077       1.03210723       0.02266041      -0.03673397       0.02922868
H       -0.72460756       1.36022965       0.73404540       0.01473185       0.03279352       0.00219033
C       -0.10181953       2.04765892      -1.23097470       0.00731031      -0.01477200       0.02174453
H        0.66959958       1.86120573      -1.98744732      -0.00383819      -0.00722971       0.02861561
H       -1.08997982       1.63355830      -1.59225937       0.03029831       0.02811968      -0.02186535
H       -0.25117755       3.14156455      -1.16375196      -0.04566483      -0.03550612      -0.00675513
12
Properties=species:S:1:pos:R:3:mp2_forces:R:3 R1=H R2=H R3=H R4=CH3 lg=Cl nu=F rxn-id=17 mp2_energy=-18439.012281463445 pbc="F F F"
C        0.44227643      -0.03257105       0.06787925      -0.01609560       0.00528693       0.01170623
C       -0.01775442       1.42188704       0.26302209       0.01563983       0.03619118      -0.01305214
H        0.67446639       1.96306329       0.91091264       0.03101817      -0.00624529       0.00268649
Cl      -2.77935011      -0.55787755       1.32561769      -0.00683801      -0.01969699      -0.00529670
F        1.74898084       0.00535768      -0.55023242      -0.01009095      -0.03012150       0.04774098
H       -0.23151787      -0.56907116      -0.52744613      -0.01280610      -0.04187678      -0.00279343
H        0.51360494      -0.48165965       1.02774750       0.00624394       0.02544152      -0.05931893
H       -1.00324657       1.35409028       0.78429828       0.02508186       0.02210275       0.01686195
C       -0.14831132       2.13287526      -1.10850825      -0.00753745       0.01014452       0.00217382
H        0.71669709       2.02441080      -1.68212466       0.00978815       0.00220472       0.01244659
H       -0.98593353       1.72356625      -1.64636597       0.01111702       0.00329374      -0.01010686
H       -0.40529424       3.20563727      -0.93278603      -0.04552085      -0.00672482      -0.00304800
12
Properties=species:S:1:pos:R:3:mp2_forces:R:3 R1=H R2=H R3=H R4=CH3 lg=Br nu=Br rxn-id=18 mp2_energy=-143241.88254678727 pbc="F F F"
C        0.55746284       0.00962528       0.07537336      -0.03525187      -0.00556441       0.01018565
C        0.21621267       1.48246582       0.09468480       0.00729140      -0.01336782       0.01582051
H        0.93401053       2.04411959       0.71243227       0.02319723       0.01559529      -0.00167890
Br      -2.84313539      -0.37605330       0.84934626      -0.00218435      -0.00532018      -0.01258619
Br       2.43334855      -0.29591335      -0.52272038      -0.01418331       0.03399116      -0.03485763
H       -0.09261015      -0.56407727      -0.61951537      -0.00652120      -0.01399633      -0.00139526
H        0.47928554      -0.39462540       1.05530297      -0.00067831      -0.02064812       0.03559730
H       -0.76099218       1.49752270       0.64124649       0.00449845       0.01555634       0.00489724
C        0.05414694       2.08267294      -1.28697506       0.01373504      -0.00659272      -0.00046750
H        0.92761973       1.98824416      -1.88364257       0.01578468       0.00687241      -0.00071414
H       -0.80778862       1.62831594      -1.84446944       0.01593602       0.00310428      -0.00375261
H       -0.17276201       3.19343415      -1.18774913      -0.02162376      -0.00962992      -0.01104846
11
Properties=species:S:1:pos:R:3:mp2_forces:R:3 R1=H R2=H R3=H R4=NH2 lg=F nu=F rxn-id=20 mp2_energy=-9077.021277205537 pbc="F F F"
C        0.56949781       0.00759880       0.01087147      -0.00571460      -0.02751521       0.06564311
C        0.35135764       1.49669700      -0.01096913       0.00324247       0.01556103      -0.02387058
H        1.28687500       2.05314301      -0.14144430       0.00833879       0.00715032      -0.00514852
F       -2.08939544       0.05460403      -0.08539058       0.00184950      -0.02440200       0.04067143
F        1.98317566      -0.25426665       0.08550245      -0.01908272      -0.00888752       0.07752670
H        0.27163229      -0.41388195      -0.98044344       0.00420010      -0.01761391      -0.07727791
H        0.12476523      -0.51902608       0.78627922       0.01073822       0.04185885      -0.08340555
H       -0.11041137       1.80443591       0.97726704       0.01977893      -0.00973522      -0.00719232
N       -0.52395799       1.82825490      -1.16868624      -0.01588925       0.00530614      -0.00356195
H       -0.83250853       2.77631111      -1.06383631      -0.00421261       0.00983793       0.00130792
H       -1.34786519       1.22280652      -0.93961364      -0.00324884       0.00843960       0.01530767
11
Properties=species:S:1:pos:R:3:mp2_forces:R:3 R1=H R2=H R3=H R4=NH2 lg=F nu=Cl rxn-id=21 mp2_energy=-18873.699614274356 pbc="F F F"
C        0.70364854       0.04261990       0.00698213      -0.00501462      -0.00556476      -0.01722899
C        0.50207597       1.54995476      -0.03460376       0.00744160      -0.00272450      -0.01856805
H        1.44548318       2.05001595      -0.09604740      -0.00082185      -0.00651392       0.00457110
F       -1.91560071       0.20271955      -0.09189357      -0.00170443      -0.01895694       0.04592508
Cl       2.49942211      -0.40532026       0.06863583      -0.00605887       0.00140568       0.09937664
H        0.33738632      -0.38994745      -0.96388433      -0.01802471      -0.02679558      -0.06913363
H        0.19807541      -0.48561935       0.81244470       0.02458073       0.02899479      -0.06332226
H        0.00508304       1.82750207       0.97560995       0.02694591       0.00742004      -0.00953461
N       -0.32202853       1.86658130      -1.15811193      -0.01208594       0.01037425       0.02178866
H       -0.60921312       2.87185973      -1.08533991      -0.00359457       0.00559447      -0.00169887
H       -1.18573630       1.34140103      -0.94870652      -0.01166325       0.00676647       0.00782491
11
Properties=species:S:1:pos:R:3:mp2_forces:R:3 R1=H R2=H R3=H R4=NH2 lg=Cl nu=F rxn-id=23 mp2_energy=-18875.07851090274 pbc="F F F"
C        0.56851059      -0.01401422       0.03073781      -0.00569305       0.07573081      -0.03487815
C        0.12866712       1.43690159       0.06274263      -0.00659033       0.00003445       0.00030013
H        1.00461854       2.04706061       0.29489709      -0.01043681       0.00827365      -0.03042729
Cl      -2.83092313      -0.24296860       0.01439020      -0.02230495      -0.00352210      -0.00766248
F        1.99023314      -0.03796345      -0.04561380      -0.00817019      -0.02145848      -0.02728364
H        0.20796620      -0.51889677      -0.82739793      -0.01633783       0.00921680       0.05240679
H        0.28253253      -0.59708719       0.88892788       0.00326639       0.04347151       0.00450791
H       -0.59892021       1.58391617       0.88828086      -0.02109192      -0.06631614      -0.00021225
N       -0.51780927       1.85911137      -1.21466814       0.02963011      -0.00590265      -0.01318052
H       -0.66452949       2.80983545      -1.20586380       0.02634153      -0.01930895       0.04685669
H       -1.35064751       1.34362281      -1.24636528       0.03138704      -0.02021890       0.00957280
11
Properties=species:S:1:pos:R:3:mp2_forces:R:3 R1=H R2=H R3=H R4=NH2 lg=Br nu=Br rxn-id=25 mp2_energy=-143677.95600126398 pbc="F F F"
C        0.66822538       0.04362991       0.04002078       0.06378008      -0.00787318       0.03653967
C        0.29205514       1.48912900       0.10389806       0.03541440       0.02870246      -0.00497460
H        1.15094718       2.11340088       0.36430377      -0.02525444       0.03041260       0.01232750
Br      -2.82464987      -0.03497192      -0.01880154      -0.06979595      -0.02954553      -0.01390813
Br       2.58649587      -0.24095480      -0.25931489       0.00887877      -0.02216530      -0.07132656
H        0.20410070      -0.50881391      -0.75991853      -0.03396141      -0.02082278      -0.01044688
H        0.47987639      -0.52538905       0.94851566      -0.01416162       0.04005459       0.06778207
H       -0.50174623       1.61131975       0.84435460      -0.00679516      -0.04453703      -0.04977997
N       -0.17491439       1.88798878      -1.25118031      -0.00066857       0.00695434       0.03576730
H       -0.32972767       2.87845304      -1.20233191       0.01114287       0.01739732       0.00917731
H       -1.11351862       1.48186027      -1.33205552       0.03142104       0.00142249      -0.01115774
11
Properties=species:S:1:pos:R:3:mp2_forces:R:3 R1=H R2=H R3=NO2 R4=H lg=Cl nu=Cl rxn-id=26 mp2_energy=-32724.683816591507 pbc="F F F"
C        0.57084723      -0.02962598       0.01206292      -0.02164361       0.05901267      -0.01069521
C        0.14970459       1.38657509      -0.00399218      -0.03340526       0.03839147       0.03310840
H        0.73690109       2.00374264      -0.66874842      -0.01997200      -0.01053740      -0.02002904
Cl      -2.63223536      -0.16884934      -0.54655446      -0.01918178      -0.03012382      -0.04983947
Cl       2.37688583      -0.20958586       0.16944585       0.04927587      -0.04234831       0.04819417
H        0.36382314      -0.45914939      -0.97091012      -0.03717416      -0.01953303       0.00013015
H        0.08697998      -0.59263927       0.82676387       0.07779781       0.04839005      -0.00739948
H       -0.91209969       1.44288161      -0.28897689      -0.06924329       0.00051405       0.00493961
N        0.28635355       2.00552118       1.32982979       0.04839245       0.03006179       0.02974732
O        0.20951190       3.28791187       1.31719708       0.04393663      -0.04343009      -0.02953266
O        0.31208707       1.33261273       2.34467643      -0.01878267      -0.03039739       0.00137622
11
Properties=species:S:1:pos:R:3:mp2_forces:R:3 R1=H R2=H R3=NO2 R4=H lg=Cl nu=Br rxn-id=27 mp2_energy=-90227.65332596636 pbc="F F F"
C        0.61678360      -0.01772818      -0.03896789       0.07343450      -0.04164470       0.00627970
C        0.19930282       1.38767480      -0.04224405      -0.03037652      -0.05146273      -0.03665521
H        0.73312935       2.01468697      -0.71552796       0.00233476      -0.00699964       0.04443463
Cl      -2.62800664      -0.17788734      -0.57733106      -0.00204005      -0.01965845      -0.04952102
Br       2.56921921      -0.20317099       0.25118957      -0.04015985       0.01360864       0.02456108
H        0.38762431      -0.45541550      -0.98608927      -0.05178553       0.05181296      -0.01283386
H        0.08239282      -0.64423887       0.73783818       0.04805874       0.03676898       0.04791329
H       -0.89574285       1.38274914      -0.29879189      -0.09355696      -0.00594201       0.00366389
N        0.26562289       2.05322387       1.33679694       0.07020920      -0.03914895      -0.01296374
O        0.25408975       3.28277646       1.33457942       0.03716469       0.04811700       0.03417422
O        0.26941471       1.38446286       2.26962536      -0.01328297       0.01454890      -0.04905299
11
Properties=species:S:1:pos:R:3:mp2_forces:R:3 R1=H R2=H R3=NO2 R4=H lg=Br nu=Cl rxn-id=29 mp2_energy=-90227.92178438423 pbc="F F F"
C        0.57884282      -0.01761953      -0.03724167       0.02964282       0.02394445      -0.00081812
C        0.17797015       1.41414150       0.00275343      -0.04057267       0.00619494      -0.02690403
H        0.69040252       2.03692727      -0.71107902      -0.01082122       0.00106723      -0.00506140
Br      -2.84201946      -0.18399877      -0.49061484      -0.00974308      -0.02387256      -0.03981742
Cl       2.39281913      -0.20846450       0.14426257       0.04083375      -0.02297450       0.01382888
H        0.28641064      -0.48214800      -0.99879674      -0.04950437       0.00999516      -0.02272647
H        0.14182295      -0.59913621       0.78438568       0.03261580      -0.01126677       0.07099307
H       -0.92237808       1.41929697      -0.20036685      -0.06806231      -0.01052614      -0.02519519
N        0.35512295       2.09542314       1.34347173       0.05210732       0.04171488      -0.01749348
O        0.40693316       3.26294416       1.35296543       0.04532036      -0.00994800       0.05032425
O        0.42958824       1.39289302       2.31721303      -0.02181643      -0.00432868       0.00286991
11
Properties=species:S:1:pos:R:3:mp2_forces:R:3 R1=H R2=H R3=NO2 R4=H lg=Br nu=Br rxn-id=30 mp2_energy=-147730.88333589796 pbc="F F F"
C        0.65838000      -0.05803628      -0.02674859       0.01708834      -0.02124271      -0.00162349
C        0.19167383       1.37744413      -0.03340184      -0.04385832      -0.01211813      -0.03815215
H        0.68228532       2.01557638      -0.71182590      -0.01896212       0.01589838      -0.01205037
Br      -2.79985925      -0.19777410      -0.46613601      -0.00496592      -0.02207819      -0.04267027
Br       2.51384610      -0.26164570       0.19141650       0.03200496      -0.03261769       0.01749476
H        0.31918068      -0.42856847      -0.96488855      -0.01629950       0.01154612      -0.02361061
H        0.12258787      -0.57682838       0.74015604       0.05208898       0.00163971       0.06639874
H       -0.90005637       1.38134664      -0.21900037      -0.07473667       0.02978257      -0.00830927
N        0.34615463       2.05649748       1.35019319      -0.01011931       0.02822068      -0.00852327
O        0.39304076       3.29614087       1.33237225       0.06591365      -0.00804471       0.04558483
O        0.37997273       1.35601440       2.35099331       0.00184589       0.00901397       0.00546109
13
Properties=species:S:1:pos:R:3:mp2_forces:R:3 R1=H R2=H R3=NO2 R4=NO2 lg=F nu=F rxn-id=32 mp2_energy=-18685.08247111868 pbc="F F F"
C        0.58097329      -0.10054594       0.00035522       0.01096580      -0.02906078       0.03455467
C        0.40281635       1.37392166       0.23954920      -0.00839175      -0.02944975       0.01293762
H        1.32509170       1.83544245       0.60952776      -0.01924028      -0.00230727      -0.00558845
F       -1.49081789      -0.32484055       1.03883666      -0.04511898       0.05135121      -0.01374297
F        1.82799701      -0.13539457      -0.74722902       0.02501183      -0.00955265      -0.01849311
H       -0.23347037      -0.48881958      -0.58950276       0.01632869      -0.00967444      -0.07614074
H        0.72385814      -0.62312875       0.92029280       0.04586528       0.00408969       0.08241626
N       -0.60439017       1.80888448       1.28395701      -0.00354576       0.02376710      -0.00565475
O       -1.62953331       2.37271683       0.90320785       0.02348609       0.00904520       0.03291591
O       -0.23854314       1.60288779       2.42830510      -0.00006839      -0.05024643       0.00245016
N        0.11973681       2.16731378      -0.96342552      -0.03104199       0.03619106       0.01250306
O        0.46684819       3.27561442      -1.04359110      -0.01904874      -0.00749094      -0.04771524
O       -0.53390962       1.57236310      -1.87943370       0.00479820       0.01333798      -0.01044243
13
Properties=species:S:1:pos:R:3:mp2_forces:R:3 R1=H R2=H R3=NO2 R4=NO2 lg=Cl nu=F rxn-id=33 mp2_energy=-28482.976093326004 pbc="F F F"
C        0.40462236      -0.03699473       0.05276241      -0.01025942      -0.01448935      -0.00928226
C        0.39127665       1.42652519       0.33536899      -0.01082123      -0.00251747      -0.01200465
H        1.29916442       1.77145692       0.78603301      -0.01010513      -0.02716729      -0.01330152
Cl      -2.21206002      -1.12756878       1.26996891      -0.04401416      -0.04822379       0.02614363
F        1.65079198      -0.18275706      -0.63978546      -0.01418766       0.02556833       0.01359060
H       -0.40309572      -0.36281576      -0.57991563       0.02271808      -0.01386906      -0.03769193
H        0.44949342      -0.56541970       0.94693040       0.02537200       0.03486991       0.00339301
N       -0.72294788       1.82835829       1.26850191       0.00941746      -0.02156062       0.07179957
O       -1.73749545       2.35417109       0.79867523      -0.02391405       0.03390548       0.02687153
O       -0.46276402       1.69666002       2.46296544      -0.00111799       0.02609533      -0.02359743
N        0.19773795       2.24925857      -0.92660029       0.03059196       0.00702435      -0.02338625
O        0.72082666       3.39504230      -0.88439814      -0.00020647      -0.00362573      -0.00572283
O       -0.38145208       1.72337704      -1.85290306       0.02652660       0.00398991      -0.01681146
13
Properties=species:S:1:pos:R:3:mp2_forces:R:3 R1=H R2=H R3=NO2 R4=NO2 lg=Cl nu=Cl rxn-id=34 mp2_energy=-38279.589826174095 pbc="F F F"
C        0.52767494       0.01552533      -0.01796143      -0.02637365       0.01797091      -0.04068253
C        0.50428574       1.46791441      -0.20349801      -0.01001289      -0.01522474       0.01464973
H        1.43171988       1.85967295      -0.59542521       0.00338520      -0.05305618       0.01943314
Cl      -2.38631887      -0.73552215      -0.65740039      -0.04729418      -0.04958109      -0.01272721
Cl       2.15930636      -0.44329110       0.67322963       0.04881674       0.01705833       0.05968313
H        0.46529565      -0.50821818      -0.99452307       0.00837423       0.00882961      -0.06449976
H       -0.21580302      -0.37401772       0.65404678       0.00360908      -0.01786087       0.02904800
N        0.22166785       2.21021350       1.10064106       0.04873674      -0.00366797       0.02687838
O        0.68071669       3.36619356       1.13570791       0.01268712      -0.00181121      -0.01277205
O       -0.33060815       1.58280905       2.00247919       0.01525060       0.03740087       0.01666545
N       -0.55751581       1.86916164      -1.16784756      -0.03275366      -0.00687040       0.00064241
O       -1.43155491       2.59301124      -0.74074262      -0.03465923       0.01559673      -0.04774502
O       -0.37910935       1.55911382      -2.32470657       0.01023389       0.05121601       0.01142633
13
Properties=species:S:1:pos:R:3:mp2_forces:R:3 R1=H R2=H R3=NO2 R4=NO2 lg=Cl nu=Br rxn-id=35 mp2_energy=-95782.56023478224 pbc="F F F"
C        0.58508632       0.01434055       0.01924531       0.02824112       0.01887832       0.03491607
C        0.50954451       1.49821897       0.17222147       0.01552824      -0.05019921      -0.02627548
H        1.48156819       1.92463915       0.57805965       0.01503552      -0.05751072      -0.01728640
Cl      -2.31177825      -0.64568185       0.71051793      -0.04270129      -0.04730605       0.01392775
Br       2.35836764      -0.44639717      -0.71958075      -0.00296836       0.02277610      -0.04073724
H       -0.20559474      -0.42225577      -0.60844135       0.00149030      -0.00573382      -0.02294109
H        0.49836891      -0.46738366       0.98490534       0.00507054       0.00468050       0.07059812
N       -0.54800037       1.91935079       1.17543802      -0.01210159      -0.01566899      -0.02548507