11
Properties=species:S:1:pos:R:3:mp2_forces:R:3 R1=H R2=H R3=H R4=NO2 lg=F nu=Cl rxn-id=0 mp2_energy=-22927.75429595961 pbc="F F F"
C        0.74980284      -0.03580215       0.03006039      -1.22563263       1.38804916      -2.37177750
C        1.45639346       1.31477475      -0.17037866      -0.84307064      -1.66874083       1.21530298
H        2.47812458       1.06638471      -0.39173405       0.74230414       0.00479558      -0.15303442
F       -0.66042765       0.17067854       0.14871621       0.82100599       0.02004764       0.03521129
Cl       3.96745938      -0.85372057      -0.05695561      -0.02265671       0.00815132       0.03331367
H        0.91561737      -0.66517562      -0.84127101      -0.05386529       0.05126400      -0.04898046
H        1.07271959      -0.54058138       0.86939280       0.87609674      -0.83862392       1.95405271
H        1.33932178       1.92392257       0.71515135       0.15950573       0.25589937       0.05271098
N        0.83845090       2.02413564      -1.25735736      -2.04928783       4.61128407      -0.39546579
O        0.42729597       3.23660428      -0.98894608       1.33927772      -3.71553879      -0.80995069
O        0.69573151       1.50892554      -2.36893330       0.25632278      -0.11658759       0.48861723
11
Properties=species:S:1:pos:R:3:mp2_forces:R:3 R1=H R2=H R3=H R4=NO2 lg=Cl nu=Cl rxn-id=1 mp2_energy=-32724.49535358391 pbc="F F F"
C        0.64469976      -0.04065578       0.01688087      -1.53875736       1.32995671      -1.06593183
C        1.08856608       1.39638311      -0.18400608       2.53434169      -0.83117611       2.43153364
H        2.21185803       1.28200059      -0.36948701      -1.21912223       0.22548262      -0.07586438
Cl      -1.16973346      -0.02845141       0.28284136       0.28823606      -0.17735760       0.20697014
Cl       3.77092289      -0.58429794      -0.41730810       0.00929512       0.04795597       0.05377895
H        0.79758219      -0.61533841      -0.87706878       0.26921048      -0.23412796      -0.22263225
H        1.11612632      -0.47340061       0.85566694       0.53494715      -0.43701655       0.85380107
H        0.95810253       2.02525149       0.74309335      -0.10006180      -0.65096122      -1.12618032
N        0.45632735       2.05397593      -1.27772596      -1.56550929       1.47648657      -1.35362907
O        0.07757242       3.23380911      -1.09715250       0.49415093      -0.98700742      -0.21630358
O        0.27789543       1.42895578      -2.33193060       0.29326925       0.23776500       0.51445763
11
Properties=species:S:1:pos:R:3:mp2_forces:R:3 R1=H R2=H R3=H R4=NO2 lg=Cl nu=Br rxn-id=2 mp2_energy=-90227.75676183173 pbc="F F F"
C        0.59565161      -0.02818423      -0.01685742      -0.33631953       0.39486942       3.08226611
C        1.11550711       1.35191731      -0.14969674      -1.66702340       1.58350200       0.09139045
H        2.16451249       1.30448720      -0.37890571       0.68192843      -0.07304030      -0.16641142
Cl      -1.18371310      -0.06706888       0.40515386       0.53432179       0.08484267      -0.37317303
Br       3.92016898      -0.61459899      -0.47283773       0.01262568       0.00333653       0.03764696
H        0.80480138      -0.60888692      -0.84300006       0.10838932      -1.20044464      -1.93025813
H        1.10225475      -0.47540878       0.85319887      -0.12523234       0.07629779      -0.47005225
H        0.88693155       2.01964558       0.71695879       0.33652254      -0.74599874      -0.56807566
N        0.41112442       2.06189921      -1.29287670       0.48384029      -0.86051300      -0.82337650
O        0.07437367       3.21884183      -1.13460290      -0.22461567       1.17379017       0.65782145
O        0.25132071       1.46542306      -2.35963979       0.19556300      -0.43664192       0.46222200
11
Properties=species:S:1:pos:R:3:mp2_forces:R:3 R1=H R2=H R3=H R4=NO2 lg=Br nu=Cl rxn-id=5 mp2_energy=-90227.54082189513 pbc="F F F"
C        0.65588452      -0.01508262       0.02910254      -1.32634088      -1.31875779      -1.13150319
C        1.04930772       1.39029590      -0.13105387       1.67217680       0.79263976       0.88660051
H        2.15759238       1.32049279      -0.34619060      -0.84968574       0.18349782       0.04990550
Br      -1.33039595      -0.14114777       0.33298270       0.43087538      -0.00372042       0.08083474
Cl       3.79031465      -0.50894581      -0.37471227      -0.01634452       0.05292590       0.05045732
H        0.83470479      -0.61133607      -0.89217168      -0.02303619       0.58298997       0.72298272
H        1.13237218      -0.50332538       0.85800867       0.25848361      -0.01412063       0.34169401
H        0.88668238       2.04678910       0.75158878      -0.03182335      -0.60140359      -0.56919487
N        0.40419707       2.06483731      -1.25779833       0.07137115       0.21485783      -1.35068046
O        0.06809508       3.23245865      -1.11134513      -0.23353254       0.70112101       0.59781521
O        0.31728909       1.48841633      -2.34145595       0.04785625      -0.59002986       0.32108853
11
Properties=species:S:1:pos:R:3:mp2_forces:R:3 R1=H R2=H R3=H R4=NO2 lg=Br nu=Br rxn-id=6 mp2_energy=-147730.64229286351 pbc="F F F"
C        0.62187141      -0.01292009      -0.00321461      -0.29886664      -0.13779402       1.13263112
C        1.12883689       1.38082318      -0.16167484      -0.75423008       0.85186424       1.92983689
H        2.17409700       1.32601356      -0.34571449       1.23141656      -0.21931558      -0.28274627
Br      -1.34133646      -0.06154790       0.31322471       0.53750876       0.02487087      -0.08399099
Br       3.92967323      -0.64198621      -0.33076451      -0.02175910       0.02951719       0.04618100
H        0.85451413      -0.62411222      -0.83604232      -0.02620827      -0.44233954      -0.99058837
H        1.11031840      -0.47757950       0.85954037      -0.19534593       0.23615660      -0.09698500
H        0.93549861       2.01566209       0.71858612       0.16498813      -0.40508580      -0.14426314
N        0.50341475       2.09382119      -1.23507991      -2.52907854       1.71135956      -3.76119162
O        0.05918860       3.27732606      -1.11922190       1.29465592      -1.98605463       0.81449162
O        0.35083998       1.47961793      -2.32524044       0.59691923       0.33682112       1.43662476
10
Properties=species:S:1:pos:R:3:mp2_forces:R:3 R1=H R2=H R3=H R4=CN lg=Cl nu=Br rxn-id=11 mp2_energy=-87177.81990391087 pbc="F F F"
C        0.62252493      -0.02608563       0.07104788      -2.14378707       1.77242943      -3.03953110
C        0.99678457       1.44155634      -0.10344805      -0.02568334      -0.70968134      -1.57936530
H        2.07083651       1.41116666      -0.28764847       0.33410037       0.08734412       0.20653460
Cl      -1.14800416      -0.24672895       0.36382487       0.11909003       0.08998688       0.19922118
Br       3.94585644      -0.34393606      -0.72409413      -0.00855835       0.00049936       0.04879351
H        0.83301652      -0.55166936      -0.84234583       0.22426628      -0.27676550      -0.26820974
H        1.14261377      -0.43948823       0.82714832       1.75467994      -1.39810105       2.73292379
H        0.75519296       1.98769162       0.76410327      -0.19129122       0.85337668       1.21062122
C        0.37708004       2.10264630      -1.27160023      -0.55450230      -0.09368365      -0.21054999
N       -0.15999929       2.61492596      -2.19238728       0.49168570      -0.32540493       0.69956183
10
Properties=species:S:1:pos:R:3:mp2_forces:R:3 R1=H R2=H R3=H R4=CN lg=Br nu=Cl rxn-id=12 mp2_energy=-87177.60571252683 pbc="F F F"
C        0.60848787      -0.00286155       0.02567153       0.00481338      -2.14517442       0.16438558
C        0.96198967       1.39688071      -0.10816197       2.07002298       1.75115033      -0.66872959
H        2.09121215       1.39870352      -0.24396047      -0.98914963      -0.13373545      -0.03604548
Br      -1.30503923      -0.23893296       0.39112903      -0.05068615      -0.09560940       0.06120130
Cl       3.77951722      -0.23353865      -0.68172338       0.04486583      -0.01542638       0.05184078
H        0.85713212      -0.57435213      -0.87837504      -0.17013389       0.18602023       0.33436490
H        1.17995033      -0.43312123       0.85795569      -0.32891336      -0.03015737      -0.24521733
H        0.77551063       1.97558912       0.77493909      -0.32890653       0.30097734       0.71373126
C        0.36629022       2.07927556      -1.23772388      -1.26715471       1.31024134      -2.36946304
N       -0.12361972       2.63722374      -2.18088935       1.01524204      -1.12828623       1.99393160
10
Properties=species:S:1:pos:R:3:mp2_forces:R:3 R1=H R2=H R3=H R4=CN lg=Br nu=Br rxn-id=13 mp2_energy=-144680.82953506368 pbc="F F F"
C        0.64542426      -0.03305218       0.00973223      -0.64953209      -0.19117119       1.22790196
C        0.97754851       1.42536429      -0.15013519      -0.35842613       0.53900623       1.02749025
H        2.05223621       1.41125516      -0.30812668       0.46326034       0.21191352      -0.19819363
Br      -1.27600552      -0.27550448       0.44196758       0.03610869       0.02199831       0.01032429
Br       3.93335131      -0.30549620      -0.72928088       0.00640432      -0.00245621       0.04111943
H        0.79465021      -0.57413103      -0.89380628       0.35703433      -0.48092599      -0.58014618
H        1.18555808      -0.49047951       0.85846979      -0.09814391       0.31678793      -0.70286103
H        0.75753381       1.98755347       0.80662776       0.16249102      -0.47803764      -1.05177684
C        0.28922958       2.06293108      -1.27239450      -1.79123290       2.03461070      -2.63855109
N       -0.28760044       2.65168374      -2.16994363       1.87203636      -1.97172569       2.86469284
12
Properties=species:S:1:pos:R:3:mp2_forces:R:3 R1=H R2=H R3=H R4=CH3 lg=F nu=F rxn-id=15 mp2_energy=-8640.19465295208 pbc="F F F"
C        0.57114207       0.01529475       0.02044769       0.16654977      -3.03080975       3.74769065
C        1.01070126       1.35703874      -0.12133398       2.10960619       3.50805106      -2.39989942
H        2.15030656       1.27922023      -0.29828214      -1.66202099      -0.33688777       0.29772877
F       -0.77018992      -0.05986880       0.53723591      -0.30724477       0.20634090      -0.49916075
F        3.00369978      -0.30278873      -0.94395740       0.03110777       0.08533490      -0.11016663
H        0.63916805      -0.56581119      -0.86296612       0.10658816      -0.43875499      -0.79270026
H        1.16941714      -0.49705283       0.84905125      -0.55626483       0.51237825      -1.44829658
H        0.80944169       2.00332324       0.73036782      -0.22722161      -0.14390284       0.42043841
C        0.39783651       2.01412809      -1.41151383       3.52109319       0.11606935      -0.25867115
H        0.89288122       1.52353398      -2.30205988      -0.63366398       0.28999731       0.92888621
H       -0.62981896       1.90286411      -1.45398731      -2.32936668      -0.26047378      -0.13528205
H        0.65760054       3.09335527      -1.50726259      -0.21916221      -0.50734262       0.24943280
12
Properties=species:S:1:pos:R:3:mp2_forces:R:3 R1=H R2=H R3=H R4=CH3 lg=Cl nu=F rxn-id=17 mp2_energy=-18437.366664103338 pbc="F F F"
C        0.47478884      -0.00539641       0.14337407      -0.19341951       0.37554599       1.49539316
C        0.78058914       1.46603605       0.01451726      -1.36910766       0.37647289       0.65272139
H        1.84305949       1.46788938       0.02606963       1.08365440       0.06311572       0.02211844
Cl      -1.32244332      -0.33392953       0.38501374       0.26748148       0.03759848      -0.27159130
F        2.53591421      -0.01179551      -1.50598726       0.01260300      -0.04465912      -0.09876771
H        0.90556694      -0.45734144      -0.73489059       0.10981786      -0.55949947      -0.42369458
H        0.92862382      -0.39101640       1.07458645      -0.10411295      -0.04282737      -0.55371023
H        0.37618275       2.07620471       0.86811158       0.17943260      -0.52090024      -0.60175286
C        0.37614382       1.98942811      -1.34039523      -0.32943298      -0.03087487      -1.36540867
H        0.99870872       1.42232124      -2.08089742      -0.39934801       0.47149970       0.72420873
H       -0.69823744       1.88607198      -1.60595845       0.40721684      -0.28356629       0.41802889
H        0.55950366       3.06108196      -1.43925884       0.33521493       0.15809459       0.00245474
12
Properties=species:S:1:pos:R:3:mp2_forces:R:3 R1=H R2=H R3=H R4=CH3 lg=Br nu=Br rxn-id=18 mp2_energy=-143241.75568515266 pbc="F F F"
C        0.57874502       0.03325183       0.03848959      -0.44383013      -0.51712007       0.83375027
C        0.92187996       1.48754994      -0.11661957       0.07028976       0.66670234       1.60908396
H        2.02056868       1.47019810      -0.13994140      -0.12284034       0.19119922       0.10244908
Br      -1.36367369      -0.20176423       0.56084421       0.43349544       0.01990443      -0.20299669
Br       3.78118657      -0.50870414      -0.95280436       0.02112488      -0.01665103      -0.02614278
H        0.72845059      -0.57401471      -0.83747881      -0.05322558       0.03578762      -0.52325444
H        1.13912871      -0.47120867       0.83540328      -0.18273638       0.39302191      -0.09951883
H        0.56967166       2.04946396       0.82558249       0.56565339      -0.72147542      -1.33836745
C        0.40195091       2.12655069      -1.38187073      -1.22181979      -1.07658980      -0.46300228
H        0.90698987       1.63724447      -2.23284342      -0.17317388       0.35986942       0.16574608
H       -0.70401701       1.92825360      -1.47859059       0.95953866       0.32859609       0.00245934
H        0.56443144       3.19515837      -1.40755359       0.14752401       0.33675528      -0.06020625
11
Properties=species:S:1:pos:R:3:mp2_forces:R:3 R1=H R2=H R3=H R4=NH2 lg=F nu=F rxn-id=20 mp2_energy=-9076.399946005906 pbc="F F F"
C        0.64468803       0.00129278      -0.03658802      -2.31715170       0.64753034       2.66358078
C        1.13078175       1.39062060      -0.04656183       2.77499917       0.45508786       1.45487439
H        2.24493808       1.16029220      -0.08661703      -0.88053029       0.16400820       0.08663638
F       -0.84087145       0.04268436      -0.04589811       0.76961659      -0.15087448      -0.01428791
F        3.23997553      -0.40538551       0.15281942      -0.04927638       0.06998374       0.01015855
H        0.91697339      -0.52365134      -0.87524444       0.76450962      -1.18925279      -1.98180891
H        0.93224389      -0.53609899       0.88421145       0.01230559       0.39726263      -0.70300362
H        0.95815028       1.91023183       0.94949977      -0.20157088      -0.56171621      -0.76407772
N        0.70181687       2.14359359      -1.19011293      -1.78413939      -0.31184486      -0.66987138
H        1.08018102       3.06857639      -1.20576971       0.38186376       0.43119540       0.18908574
H       -0.31831900       2.23750322      -1.10463323       0.52937391       0.04862017      -0.27128629
11
Properties=species:S:1:pos:R:3:mp2_forces:R:3 R1=H R2=H R3=H R4=NH2 lg=F nu=Cl rxn-id=21 mp2_energy=-18874.847840171304 pbc="F F F"
C        0.71429641       0.01804196      -0.02361851       0.71219359       1.05644210      -0.67628804
C        1.24367434       1.43595554      -0.09267031       2.00785230      -1.09731196       1.46985927
H        2.35867314       1.29317717      -0.16165395      -0.95446941       0.27284592      -0.01772553
F       -0.65191586       0.10210619      -0.02150141      -2.03732316      -0.05729969       0.03862720
Cl       4.12123141      -0.84162250       0.16528255      -0.02357157       0.02707944       0.02999786
H        1.00132544      -0.51079219      -0.92691290       0.26503955      -0.26643318       0.09110963
H        0.99541750      -0.47997846       0.87883404       0.60535925      -0.44658067       0.40863144
H        1.05928982       1.93419562       0.90517189      -0.12435869      -0.16946359      -0.81370106
N        0.73490661       2.10392102      -1.25880327      -0.49627987       0.60590711      -0.11069412
H        1.13433894       3.02832131      -1.26599059       0.30247867       0.27367532      -0.26872281
H       -0.25084636       2.26444318      -1.09952830      -0.25692065      -0.19886079      -0.15109384
11
Properties=species:S:1:pos:R:3:mp2_forces:R:3 R1=H R2=H R3=H R4=NH2 lg=Cl nu=F rxn-id=23 mp2_energy=-18873.281970256772 pbc="F F F"
C        0.52494257      -0.01341639      -0.04367286       0.24769190       0.54081015       1.18484045
C        0.97164228       1.43574717      -0.05823800       0.21514798      -0.93725316      -1.59722412
H        2.08518548       1.29877277      -0.09458050      -0.55891563      -0.09337107      -0.16727638
Cl      -1.30165729      -0.18581116       0.18370045       0.32654860       0.04335845       0.06375466
F        3.20979766      -0.11331582       0.20887035      -0.08334050       0.03921362       0.04921289
H        0.75564306      -0.49450874      -0.95429633       0.16240301      -0.30762510      -1.14647056
H        1.07060590      -0.55372792       0.73156991      -0.28265349       0.20454759       0.05524840
H        0.71514669       1.89948343       0.86884789      -0.40375972       0.57298413       0.92957362
N        0.40434832       2.10756187      -1.26828824       0.81982426       0.71607157       0.54437863
H        0.83845748       3.04043707      -1.34266527      -0.14854514      -0.66722809       0.01193295
H       -0.57361735       2.29471184      -1.09854260      -0.29440128      -0.11150811       0.07202947
11
Properties=species:S:1:pos:R:3:mp2_forces:R:3 R1=H R2=H R3=H R4=NH2 lg=Br nu=Br rxn-id=25 mp2_energy=-143677.72588455115 pbc="F F F"
C        0.67157704       0.03844898       0.00424215      -1.08914804      -0.84423658       0.22699439
C        1.05241796       1.44450730      -0.06021483      -0.57233291       2.47261023       1.11982926
H        2.11169433       1.44331500      -0.17829716       1.04167128      -0.11586394      -0.03902585
Br      -1.30490884      -0.14620937       0.12389908      -0.06713770      -0.02745681       0.07462917
Br       4.03641090      -0.62435586      -0.14235025       0.02066452       0.00154429       0.02857281
H        0.94582927      -0.46958728      -0.88649899       0.23221761      -0.42846332      -0.82265372
H        1.05475089      -0.50832169       0.84346816       0.31766830      -0.02098412       0.43528998
H        0.82825687       2.00231763       0.91508218       0.17594239      -0.82881968      -0.90085965
N        0.48062085       2.13174197      -1.21947586      -0.22800989       1.07384839      -0.31157434
H        0.97491931       3.04168722      -1.36298567      -0.67856352      -1.17836062       0.27589846
H       -0.51861557       2.33336901      -1.05433983       0.84702800      -0.10381787      -0.08710052
11
Properties=species:S:1:pos:R:3:mp2_forces:R:3 R1=H R2=H R3=NO2 R4=H lg=Cl nu=Cl rxn-id=26 mp2_energy=-32724.574174552592 pbc="F F F"
C        0.61552179      -0.02241201      -0.02268697      -0.13259717      -0.26663250       0.30252546
C        1.09192336       1.39132217       0.09203176      -0.01443851      -0.47742459       0.65751120
H        2.15197911       1.30032844       0.34075759       0.25425786       0.13102206      -0.21915463
Cl      -1.16899150      -0.08994553      -0.27695027       0.14825157      -0.06009718      -0.12270718
Cl       3.81994874      -0.52101712       0.33950984      -0.02398044       0.03567574      -0.03669580
H        1.12873166      -0.48762135      -0.84316475       0.04258017      -0.21986972      -0.50267931
H        0.86673097      -0.60311782       0.86585054      -0.15378410       0.26668959      -0.04936998
H        0.88386984       2.00769894      -0.76818488       0.00925429       0.15454653      -0.21098242
N        0.44559742       2.03651457       1.24694358      -1.21978355       3.69084686       0.30835650
O        0.09419964       3.26458407       1.12259930       0.92044072      -2.77270939      -0.12773275
O        0.29177610       1.42177822       2.29416883       0.16979916      -0.48204741       0.00092892
11
Properties=species:S:1:pos:R:3:mp2_forces:R:3 R1=H R2=H R3=NO2 R4=H lg=Cl nu=Br rxn-id=27 mp2_energy=-90227.70204440807 pbc="F F F"
C        0.61796071      -0.05482459      -0.04583056       0.02544578       1.26998584      -1.46237585
C        1.06863489       1.37460731       0.10573627      -0.50927553       0.46900422       0.81478779
H        2.12556648       1.36987530       0.31173322       0.66294066      -0.18777136       0.06412051
Cl      -1.15883183      -0.13574434      -0.30238796      -0.00235757      -0.05433375      -0.22948625
Br       3.92765837      -0.54408209       0.47173322       0.03698749       0.01189258      -0.04760546
H        1.16518070      -0.47819979      -0.91144224      -0.46797957       0.01607920       0.67746883
H        0.82705754      -0.54236129       0.85196939       0.44303979      -1.14211167       1.21766350
H        0.84383083       2.02560407      -0.71448803      -0.16822150       0.17949021      -0.67555731
N        0.42330115       2.08070367       1.27945812      -0.74915099      -2.70999465       1.90143293
O        0.07022481       3.24930074       1.12749466       0.17710912      -0.09412008       0.33710104
O        0.23728601       1.36723663       2.33151072       0.55146232       2.24187945      -2.59754972
11
Properties=species:S:1:pos:R:3:mp2_forces:R:3 R1=H R2=H R3=NO2 R4=H lg=Br nu=Cl rxn-id=29 mp2_energy=-90227.4264656875 pbc="F F F"
C        0.63830940      -0.06072886      -0.00565728      -0.72786681       3.05390387      -0.88650517
C        1.12682668       1.41648074       0.15836070      -1.49368331      -1.21980723      -2.28360967
H        2.17465433       1.32372750       0.33954212       0.95946573       0.12114323       0.49868678
Br      -1.32200199      -0.06954918      -0.24485912       0.10614961      -0.09602773      -0.07430287
Cl       3.75915903      -0.54390811       0.27400991       0.03894224       0.00681625      -0.05232466
H        1.07391963      -0.45734097      -0.88959640       0.39031700      -0.50017651      -0.54965551
H        0.84956498      -0.60372594       0.84734419       0.49360801      -1.20598499       1.61923296
H        0.92814392       2.02029268      -0.76332016       0.16865250      -0.57304521       0.78122696
N        0.42973880       2.08882496       1.23964076       1.09287078      -1.87003354       2.56626250
O        0.04765949       3.22130900       1.08658395      -0.81987189       1.79497015      -0.48784442
O        0.38753924       1.47464593       2.32899343      -0.20858386       0.48824173      -1.13116690
11
Properties=species:S:1:pos:R:3:mp2_forces:R:3 R1=H R2=H R3=NO2 R4=H lg=Br nu=Br rxn-id=30 mp2_energy=-147730.73051692275 pbc="F F F"
C        0.62731784       0.02528530      -0.02982148       0.39013962      -2.42294424       0.93335107
C        1.09581514       1.41140126       0.13014038       0.59485325       0.54832717      -1.50040754
H        2.18668415       1.35341447       0.32889378      -0.38359283       0.00273564      -0.04882187
Br      -1.33078147      -0.09938016      -0.27636091       0.36711597       0.07611919      -0.06985938
Br       3.93756874      -0.61720660       0.32227397      -0.01917131       0.05621363      -0.04530969
H        1.13212433      -0.46410051      -0.87897625      -0.36014235       0.38207733       0.24412095
H        0.90296038      -0.60159173       0.86965046      -0.51219919       0.82068947      -0.98124954
H        0.87914800       1.99488217      -0.77681607       0.18248362       0.05342197       0.42045050
N        0.45091932       2.07469532       1.23902021      -0.83061387       2.74369904       1.05122757
O        0.04693176       3.25795529       1.11669616       0.54842036      -1.34078113      -0.62576438
O        0.39090149       1.48945256       2.30610559       0.02270676      -0.91955806       0.62226231
13
Properties=species:S:1:pos:R:3:mp2_forces:R:3 R1=H R2=H R3=NO2 R4=NO2 lg=F nu=F rxn-id=32 mp2_energy=-18685.099829845374 pbc="F F F"
C        0.59082152      -0.12014534      -0.03488325      -0.58714897       0.02358006       0.78153831
C        1.08920725       1.29326878      -0.15726964       1.55388893       1.17535887       0.19525789
H        2.20146383       1.33458617      -0.07222217      -0.99727421      -0.30062528      -0.09357730
F       -0.70002264      -0.14406173       0.61986869       0.86216209       0.12178967      -0.42468067
F        2.68944863      -0.00586446      -1.29106261       0.00960867       0.00314776      -0.04110603
H        0.47159327      -0.52480373      -1.02329486       0.11156322      -0.23086586      -0.07080952
H        1.29205550      -0.68750047       0.58985274      -0.34817679       0.15944013      -0.37615137
N        0.47600814       2.19607680       0.92517497      -0.76054288      -1.49240839      -3.15831050
O       -0.45990903       2.89139063       0.61206754      -1.08120659       1.31199222      -0.45360093
O        0.87799049       2.01996183       2.02425332       1.52627544      -0.35333401       3.20817684
N        0.81524007       1.98977027      -1.47750057      -4.58948503      -6.11666055       0.65011067
O        1.37849453       2.97732174      -1.68886042       2.99059653       4.94513929      -1.08053911
O       -0.07944637       1.47720848      -2.19556950       1.30973960       0.75344608       0.86369173
13
Properties=species:S:1:pos:R:3:mp2_forces:R:3 R1=H R2=H R3=NO2 R4=NO2 lg=Cl nu=F rxn-id=33 mp2_energy=-28481.68426014537 pbc="F F F"
C        0.49811650      -0.11426464       0.00045608      -0.74436225      -0.50151899       0.49472572
C        0.87892510       1.30725264      -0.01720088       2.40869396       1.64724038       0.30228930
H        2.02387024       1.34691692       0.11024987      -1.86443634       0.03153626      -0.25856323
Cl      -1.16854467      -0.34882199       0.67325120      -0.17042018      -0.20601902       0.07430987
F        2.60292543       0.20997977      -1.26167703      -0.04751433      -0.00296579       0.16219263
H        0.48749578      -0.48307652      -0.99163563       0.14207127      -0.28523318      -0.76314195
H        1.19016260      -0.68612847       0.59230036       0.12795922      -0.09365002       0.23752151
N        0.15323623       2.16976859       1.03749153       3.58956187      -3.30745408      -2.09473965
O       -0.70823554       2.88335287       0.67054837      -2.84119668       2.50765205      -0.08648529
O        0.64610108       1.97671908       2.11853301      -0.26764797       0.51110798       2.30233204
N        0.64475099       1.97800003      -1.31656006       1.75821192       1.96899179      -0.72645111
O        1.29144695       3.04478908      -1.53892334      -1.43678437      -2.13484160       0.84451199
O       -0.14004803       1.47199589      -2.09775625      -0.65413612      -0.13484578      -0.48850182
13
Properties=species:S:1:pos:R:3:mp2_forces:R:3 R1=H R2=H R3=NO2 R4=NO2 lg=Cl nu=Cl rxn-id=34 mp2_energy=-38279.73975776042 pbc="F F F"
C        0.58176327      -0.08554009       0.03421312      -0.40359002       0.82259053      -2.26803960
C        1.00394548       1.36419869       0.05989461       1.30085923      -0.43665754       1.03080598
H        2.11919300       1.34627611       0.13094934      -0.54404917       0.00098386      -0.17926371
Cl      -1.14364265      -0.26125076      -0.39538817      -0.21641784      -0.04593762      -0.09363354
Cl       3.57193938      -0.31931399       1.07041479      -0.06869430       0.08264460      -0.06815580
H        1.17732154      -0.57682566      -0.73674999      -0.07788046       0.00316973       0.13458292
H        0.73772726      -0.55852227       0.94889898       0.46023025      -0.48004724       1.57042867
N        0.57176068       2.06300359       1.28652350      -0.12630376       1.36056401       1.86773831
O        1.06632505       3.18520729       1.49283808      -0.10190291      -0.78180622      -0.76184735
O       -0.18600394       1.51834027       2.09933913       0.17780588      -0.31004110      -0.84327631
N        0.57578794       2.15488820      -1.11763394      -3.72540856       1.68994298       3.45303822
O       -0.35827271       2.99047716      -0.90755750       2.14543034      -1.53390359      -0.97089159
O        1.05507229       1.82754321      -2.15194552       1.17992131      -0.37150241      -2.87148622
13
Properties=species:S:1:pos:R:3:mp2_forces:R:3 R1=H R2=H R3=NO2 R4=NO2 lg=Cl nu=Br rxn-id=35 mp2_energy=-95783.07326984272 pbc="F F F"
C        0.57999665      -0.11390865       0.03624331       0.63473054       0.69079976       0.52916273
C        1.03616280       1.33480747      -0.12406381       1.03715851      -0.98365900       1.55639309
H        2.15453240       1.31011132      -0.11904989      -0.67664996       0.05147569       0.06700852
Cl      -1.15585356      -0.23379607       0.45030784       0.17311741      -0.08949267      -0.01158335
Br       3.67789747      -0.42735888      -1.10806292       0.00272443       0.04551558       0.01923856
H        0.78529224      -0.56449677      -0.91309140      -0.07558970      -0.61347727      -0.38180220
H        1.21445005      -0.58644902       0.82557118      -0.70513418       0.42028081      -0.67523436
N        0.55419067       2.14475801       1.07767116       2.02392507      -0.84915637       0.31380245