11
Properties=species:S:1:pos:R:3:mp2_forces:R:3 R1=H R2=H R3=H R4=NO2 lg=F nu=Cl rxn-id=0 mp2_energy=-22928.07468022901 pbc="F F F"
C        0.74980284      -0.03580215       0.03006039      -0.01281066      -0.02712027       0.01423853
C        1.45639346       1.31477475      -0.17037866      -0.00348035      -0.00174318       0.02965986
H        2.47812458       1.06638471      -0.39173405      -0.01615218       0.01863822      -0.02034326
F       -0.66042765       0.17067854       0.14871621       0.02638528      -0.01641307       0.03603798
Cl       3.96745938      -0.85372057      -0.05695561       0.00639585      -0.00522607       0.03608536
H        0.91561737      -0.66517562      -0.84127101      -0.06819230       0.03664571      -0.05883389
H        1.07271959      -0.54058138       0.86939280       0.06004518      -0.04565078      -0.01020219
H        1.33932178       1.92392257       0.71515135      -0.03364269       0.03221965       0.06577747
N        0.83845090       2.02413564      -1.25735736       0.06877231      -0.00746632      -0.04393304
O        0.42729597       3.23660428      -0.98894608       0.00779357       0.01464085      -0.03895145
O        0.69573151       1.50892554      -2.36893330      -0.03511400       0.00147524      -0.00953537
11
Properties=species:S:1:pos:R:3:mp2_forces:R:3 R1=H R2=H R3=H R4=NO2 lg=Cl nu=Cl rxn-id=1 mp2_energy=-32724.69809640813 pbc="F F F"
C        0.64469976      -0.04065578       0.01688087       0.00626180       0.01590312       0.06439091
C        1.08856608       1.39638311      -0.18400608      -0.00923728      -0.00500739      -0.01399280
H        2.21185803       1.28200059      -0.36948701       0.00152115       0.00606745       0.00415348
Cl      -1.16973346      -0.02845141       0.28284136       0.00374393       0.00087291       0.08515362
Cl       3.77092289      -0.58429794      -0.41730810       0.02154622       0.01638133       0.04448945
H        0.79758219      -0.61533841      -0.87706878      -0.00124644      -0.04744507      -0.08382902
H        1.11612632      -0.47340061       0.85566694      -0.03309241       0.02008152      -0.08813459
H        0.95810253       2.02525149       0.74309335      -0.01514522      -0.02223553      -0.00174190
N        0.45632735       2.05397593      -1.27772596       0.00846057       0.00891248      -0.00733382
O        0.07757242       3.23380911      -1.09715250       0.02238846       0.00732233      -0.00445901
O        0.27789543       1.42895578      -2.33193060      -0.00520077      -0.00085316       0.00130368
11
Properties=species:S:1:pos:R:3:mp2_forces:R:3 R1=H R2=H R3=H R4=NO2 lg=Cl nu=Br rxn-id=2 mp2_energy=-90227.92708548486 pbc="F F F"
C        0.59565161      -0.02818423      -0.01685742       0.01504994       0.01831691       0.01979942
C        1.11550711       1.35191731      -0.14969674      -0.00037776       0.00550294      -0.02913435
H        2.16451249       1.30448720      -0.37890571       0.00481385      -0.01376883      -0.00782882
Cl      -1.18371310      -0.06706888       0.40515386       0.01205889      -0.00458260       0.00547913
Br       3.92016898      -0.61459899      -0.47283773       0.01524217       0.02068759       0.04177804
H        0.80480138      -0.60888692      -0.84300006      -0.08265740       0.03570330       0.02696369
H        1.10225475      -0.47540878       0.85319887       0.05062241      -0.04385451      -0.02105948
H        0.88693155       2.01964558       0.71695879      -0.02064151      -0.04891827      -0.02827870
N        0.41112442       2.06189921      -1.29287670      -0.02118875       0.06542549       0.02908782
O        0.07437367       3.21884183      -1.13460290       0.03144869      -0.02112975      -0.00491858
O        0.25132071       1.46542306      -2.35963979      -0.00437051      -0.01338228      -0.03188817
11
Properties=species:S:1:pos:R:3:mp2_forces:R:3 R1=H R2=H R3=H R4=NO2 lg=Br nu=Cl rxn-id=5 mp2_energy=-90227.66603715112 pbc="F F F"
C        0.65588452      -0.01508262       0.02910254      -0.01579891      -0.00700063      -0.01167433
C        1.04930772       1.39029590      -0.13105387      -0.00668771      -0.01409841      -0.01288315
H        2.15759238       1.32049279      -0.34619060      -0.00643658       0.00808869       0.00026559
Br      -1.33039595      -0.14114777       0.33298270       0.01282889       0.00514828       0.09166358
Cl       3.79031465      -0.50894581      -0.37471227       0.01501871       0.02218307       0.04425237
H        0.83470479      -0.61133607      -0.89217168       0.00872809      -0.03933773      -0.05889176
H        1.13237218      -0.50332538       0.85800867      -0.03243186       0.01606052      -0.05575263
H        0.88668238       2.04678910       0.75158878      -0.01243759      -0.00545227       0.01306902
N        0.40419707       2.06483731      -1.25779833       0.03097113       0.01625106      -0.00484965
O        0.06809508       3.23245865      -1.11134513       0.01654705      -0.00177495      -0.00085947
O        0.31728909       1.48841633      -2.34145595      -0.01030120      -0.00006763      -0.00433956
11
Properties=species:S:1:pos:R:3:mp2_forces:R:3 R1=H R2=H R3=H R4=NO2 lg=Br nu=Br rxn-id=6 mp2_energy=-147730.8945329118 pbc="F F F"
C        0.62187141      -0.01292009      -0.00321461       0.01774616       0.01949669      -0.00631304
C        1.12883689       1.38082318      -0.16167484      -0.00185000       0.02645681      -0.00182335
H        2.17409700       1.32601356      -0.34571449      -0.01688637      -0.00650592      -0.01014077
Br      -1.34133646      -0.06154790       0.31322471       0.01068187      -0.00728922       0.02487876
Br       3.92967323      -0.64198621      -0.33076451       0.01316348       0.02135478       0.03762515
H        0.85451413      -0.62411222      -0.83604232      -0.07364854       0.03395057       0.01491202
H        1.11031840      -0.47757950       0.85954037       0.04208197      -0.04994512      -0.00432694
H        0.93549861       2.01566209       0.71858612      -0.02605523      -0.03940296       0.03653024
N        0.50341475       2.09382119      -1.23507991       0.05583009      -0.02920301      -0.07029881
O        0.05918860       3.27732606      -1.11922190       0.01672411       0.00957814       0.00972736
O        0.35083998       1.47961793      -2.32524044      -0.03778754       0.02150923      -0.03077063
10
Properties=species:S:1:pos:R:3:mp2_forces:R:3 R1=H R2=H R3=H R4=CN lg=Cl nu=Br rxn-id=11 mp2_energy=-87178.02421178701 pbc="F F F"
C        0.62252493      -0.02608563       0.07104788       0.00773640       0.01275026      -0.02247349
C        0.99678457       1.44155634      -0.10344805       0.00199238      -0.03049725       0.00858046
H        2.07083651       1.41116666      -0.28764847      -0.00313913       0.01647281      -0.00386167
Cl      -1.14800416      -0.24672895       0.36382487       0.01022419       0.05730183       0.02994038
Br       3.94585644      -0.34393606      -0.72409413       0.00495119       0.00336864       0.04291721
H        0.83301652      -0.55166936      -0.84234583       0.00903180      -0.03185194      -0.03311541
H        1.14261377      -0.43948823       0.82714832       0.00794930      -0.01699156      -0.00733672
H        0.75519296       1.98769162       0.76410327      -0.00320015      -0.02212253      -0.01906853
C        0.37708004       2.10264630      -1.27160023      -0.04317499       0.02949362      -0.06757440
N       -0.15999929       2.61492596      -2.19238728       0.00762899      -0.01792389       0.07199217
10
Properties=species:S:1:pos:R:3:mp2_forces:R:3 R1=H R2=H R3=H R4=CN lg=Br nu=Cl rxn-id=12 mp2_energy=-87177.75769911142 pbc="F F F"
C        0.60848787      -0.00286155       0.02567153      -0.01083951      -0.05160232      -0.01054372
C        0.96198967       1.39688071      -0.10816197      -0.00058348      -0.02018016      -0.01772115
H        2.09121215       1.39870352      -0.24396047       0.00235241       0.04558531       0.01694116
Br      -1.30503923      -0.23893296       0.39112903       0.00749093       0.06511753       0.03794413
Cl       3.77951722      -0.23353865      -0.68172338       0.01260454      -0.00666681       0.04814382
H        0.85713212      -0.57435213      -0.87837504       0.03211641      -0.01491140      -0.07579882
H        1.17995033      -0.43312123       0.85795569      -0.01607946      -0.00299674      -0.00637735
H        0.77551063       1.97558912       0.77493909       0.01692801       0.00667424      -0.03620407
C        0.36629022       2.07927556      -1.23772388      -0.02557776      -0.01482003      -0.00322197
N       -0.12361972       2.63722374      -2.18088935      -0.01841209      -0.00619962       0.04683797
10
Properties=species:S:1:pos:R:3:mp2_forces:R:3 R1=H R2=H R3=H R4=CN lg=Br nu=Br rxn-id=13 mp2_energy=-144680.9925553691 pbc="F F F"
C        0.64542426      -0.03305218       0.00973223      -0.01864708      -0.04481629       0.01737914
C        0.97754851       1.42536429      -0.15013519       0.02931470      -0.03040255       0.01977964
H        2.05223621       1.41125516      -0.30812668       0.04618775      -0.00070298      -0.02409303
Br      -1.27600552      -0.27550448       0.44196758       0.00278993      -0.00083149      -0.01724036
Br       3.93335131      -0.30549620      -0.72928088       0.01463176      -0.00884685       0.03814307
H        0.79465021      -0.57413103      -0.89380628      -0.04760163       0.01533002      -0.00086530
H        1.18555808      -0.49047951       0.85846979       0.03740720       0.02205104      -0.02683579
H        0.75753381       1.98755347       0.80662776      -0.01055651       0.01749372       0.03080170
C        0.28922958       2.06293108      -1.27239450      -0.04461241       0.04654641      -0.07518869
N       -0.28760044       2.65168374      -2.16994363      -0.00891370      -0.01582104       0.03811961
12
Properties=species:S:1:pos:R:3:mp2_forces:R:3 R1=H R2=H R3=H R4=CH3 lg=F nu=F rxn-id=15 mp2_energy=-8640.637551324562 pbc="F F F"
C        0.57114207       0.01529475       0.02044769      -0.00209426      -0.00590413      -0.00301890
C        1.01070126       1.35703874      -0.12133398      -0.00173185       0.01088773       0.01927449
H        2.15030656       1.27922023      -0.29828214      -0.00745670       0.03355786       0.01062543
F       -0.77018992      -0.05986880       0.53723591      -0.00847898       0.00872886      -0.09330484
F        3.00369978      -0.30278873      -0.94395740      -0.01004408       0.02636217      -0.05639073
H        0.63916805      -0.56581119      -0.86296612      -0.00216991      -0.01638732       0.07563717
H        1.16941714      -0.49705283       0.84905125      -0.00245579      -0.03465114       0.03683478
H        0.80944169       2.00332324       0.73036782       0.01262987       0.00845783       0.00050608
C        0.39783651       2.01412809      -1.41151383       0.00753516      -0.01442195       0.02155120
H        0.89288122       1.52353398      -2.30205988      -0.03483880       0.03090460       0.00214559
H       -0.62981896       1.90286411      -1.45398731       0.02107475      -0.00881450       0.01978258
H        0.65760054       3.09335527      -1.50726259       0.02803061      -0.03872001      -0.03364283
12
Properties=species:S:1:pos:R:3:mp2_forces:R:3 R1=H R2=H R3=H R4=CH3 lg=Cl nu=F rxn-id=17 mp2_energy=-18437.476821088047 pbc="F F F"
C        0.47478884      -0.00539641       0.14337407       0.04797884      -0.00808139       0.05498207
C        0.78058914       1.46603605       0.01451726      -0.03365132      -0.07237336      -0.00420823
H        1.84305949       1.46788938       0.02606963      -0.02755099       0.04701266       0.03825214
Cl      -1.32244332      -0.33392953       0.38501374       0.01440246       0.06153515      -0.06734390
F        2.53591421      -0.01179551      -1.50598726      -0.02509800      -0.01996159      -0.06422924
H        0.90556694      -0.45734144      -0.73489059       0.00441592      -0.01622121      -0.00946303
H        0.92862382      -0.39101640       1.07458645       0.03357539      -0.01931634       0.07336802
H        0.37618275       2.07620471       0.86811158      -0.03881506      -0.00805521      -0.01169034
C        0.37614382       1.98942811      -1.34039523       0.03095960       0.01565109       0.00728490
H        0.99870872       1.42232124      -2.08089742      -0.00866975      -0.02501463      -0.02818796
H       -0.69823744       1.88607198      -1.60595845      -0.00476873      -0.00329697       0.02726271
H        0.55950366       3.06108196      -1.43925884       0.00722164       0.04812181      -0.01602713
12
Properties=species:S:1:pos:R:3:mp2_forces:R:3 R1=H R2=H R3=H R4=CH3 lg=Br nu=Br rxn-id=18 mp2_energy=-143241.87832222774 pbc="F F F"
C        0.57874502       0.03325183       0.03848959       0.01634041       0.00148524       0.00147676
C        0.92187996       1.48754994      -0.11661957       0.00348908      -0.02637333       0.00795799
H        2.02056868       1.47019810      -0.13994140       0.00390951       0.03045736       0.01844740
Br      -1.36367369      -0.20176423       0.56084421       0.00747365       0.01726771      -0.03668788
Br       3.78118657      -0.50870414      -0.95280436       0.01067847      -0.00820415      -0.01795423
H        0.72845059      -0.57401471      -0.83747881       0.00656319      -0.00939523       0.00602659
H        1.13912871      -0.47120867       0.83540328      -0.00095227      -0.01420221       0.01951513
H        0.56967166       2.04946396       0.82558249      -0.01382704       0.00285262      -0.00036556
C        0.40195091       2.12655069      -1.38187073      -0.00405326       0.00089444       0.00306616
H        0.90698987       1.63724447      -2.23284342      -0.02721132      -0.02974165       0.00660049
H       -0.70401701       1.92825360      -1.47859059      -0.00473663       0.03078389       0.00609661
H        0.56443144       3.19515837      -1.40755359       0.00232621       0.00417529      -0.01417944
11
Properties=species:S:1:pos:R:3:mp2_forces:R:3 R1=H R2=H R3=H R4=NH2 lg=F nu=F rxn-id=20 mp2_energy=-9076.631673250395 pbc="F F F"
C        0.64468803       0.00129278      -0.03658802      -0.00457546       0.04821619       0.02823556
C        1.13078175       1.39062060      -0.04656183       0.03802297       0.01135281      -0.02073176
H        2.24493808       1.16029220      -0.08661703       0.06177617       0.02898278       0.00906382
F       -0.84087145       0.04268436      -0.04589811      -0.01691263       0.01054097       0.00944161
F        3.23997553      -0.40538551       0.15281942       0.01091170       0.02545221       0.03591719
H        0.91697339      -0.52365134      -0.87524444      -0.07560049       0.00819889      -0.00008514
H        0.93224389      -0.53609899       0.88421145       0.03838374      -0.03928556      -0.03721155
H        0.95815028       1.91023183       0.94949977      -0.03935913      -0.06154729      -0.01915828
N        0.70181687       2.14359359      -1.19011293      -0.01534814      -0.01648813       0.00035316
H        1.08018102       3.06857639      -1.20576971      -0.02064647      -0.04696784       0.00580002
H       -0.31831900       2.23750322      -1.10463323       0.02334774       0.03154497      -0.01162464
11
Properties=species:S:1:pos:R:3:mp2_forces:R:3 R1=H R2=H R3=H R4=NH2 lg=F nu=Cl rxn-id=21 mp2_energy=-18875.005922580985 pbc="F F F"
C        0.71429641       0.01804196      -0.02361851       0.01279476       0.00440839       0.00417867
C        1.24367434       1.43595554      -0.09267031       0.00819353       0.00491354      -0.00891081
H        2.35867314       1.29317717      -0.16165395       0.00847697      -0.00228371       0.01972860
F       -0.65191586       0.10210619      -0.02150141       0.01149242       0.00372962       0.09068542
Cl       4.12123141      -0.84162250       0.16528255      -0.02170608       0.01311399       0.03159346
H        1.00132544      -0.51079219      -0.92691290       0.00333910      -0.00547137      -0.06973820
H        0.99541750      -0.47997846       0.87883404      -0.01447837       0.02315043      -0.06743836
H        1.05928982       1.93419562       0.90517189      -0.00850550      -0.00624025       0.00846923
N        0.73490661       2.10392102      -1.25880327      -0.00548634      -0.00233811      -0.00215377
H        1.13433894       3.02832131      -1.26599059       0.01109052      -0.02192764      -0.00262136
H       -0.25084636       2.26444318      -1.09952830      -0.00521100      -0.01105488      -0.00379288
11
Properties=species:S:1:pos:R:3:mp2_forces:R:3 R1=H R2=H R3=H R4=NH2 lg=Cl nu=F rxn-id=23 mp2_energy=-18873.372325594 pbc="F F F"
C        0.52494257      -0.01341639      -0.04367286      -0.01196659       0.04395087       0.04576185
C        0.97164228       1.43574717      -0.05823800      -0.00519809      -0.01571137      -0.02803987
H        2.08518548       1.29877277      -0.09458050      -0.01475139      -0.04598899       0.00391279
Cl      -1.30165729      -0.18581116       0.18370045       0.03091825      -0.06587377       0.04355186
F        3.20979766      -0.11331582       0.20887035      -0.03080910      -0.00002916       0.04402199
H        0.75564306      -0.49450874      -0.95429633       0.03132817      -0.02058092      -0.02882471
H        1.07060590      -0.55372792       0.73156991      -0.02464773       0.02470613      -0.04831170
H        0.71514669       1.89948343       0.86884789       0.04444864      -0.00388853      -0.00076055
N        0.40434832       2.10756187      -1.26828824      -0.01240566       0.01957780      -0.02534070
H        0.83845748       3.04043707      -1.34266527       0.01942464       0.03492888       0.00066531
H       -0.57361735       2.29471184      -1.09854260      -0.02634114       0.02890908      -0.00663627
11
Properties=species:S:1:pos:R:3:mp2_forces:R:3 R1=H R2=H R3=H R4=NH2 lg=Br nu=Br rxn-id=25 mp2_energy=-143677.87169575735 pbc="F F F"
C        0.67157704       0.03844898       0.00424215      -0.00072165      -0.01074264      -0.01180646
C        1.05241796       1.44450730      -0.06021483      -0.00259989      -0.01772439      -0.01623858
H        2.11169433       1.44331500      -0.17829716       0.00518710      -0.00250343       0.04008237
Br      -1.30490884      -0.14620937       0.12389908      -0.00573238       0.01737416       0.08263748
Br       4.03641090      -0.62435586      -0.14235025       0.00371302       0.01374894       0.03324382
H        0.94582927      -0.46958728      -0.88649899       0.02176470      -0.03247500      -0.07079296
H        1.05475089      -0.50832169       0.84346816      -0.02078553       0.03509190      -0.04927924
H        0.82825687       2.00231763       0.91508218      -0.00466196      -0.01590816      -0.00636817
N        0.48062085       2.13174197      -1.21947586       0.00478020       0.00966395       0.00652748
H        0.97491931       3.04168722      -1.36298567      -0.00440251      -0.00127112      -0.01208441
H       -0.51861557       2.33336901      -1.05433983       0.00345889       0.00474577       0.00407866
11
Properties=species:S:1:pos:R:3:mp2_forces:R:3 R1=H R2=H R3=NO2 R4=H lg=Cl nu=Cl rxn-id=26 mp2_energy=-32724.699693349685 pbc="F F F"
C        0.61552179      -0.02241201      -0.02268697       0.00741956       0.01705467      -0.06389406
C        1.09192336       1.39132217       0.09203176      -0.00860019      -0.00490857       0.01132963
H        2.15197911       1.30032844       0.34075759       0.00102153       0.00629477      -0.00457137
Cl      -1.16899150      -0.08994553      -0.27695027       0.00157126       0.00010491      -0.08334631
Cl       3.81994874      -0.52101712       0.33950984       0.02030970       0.01665583      -0.04248250
H        1.12873166      -0.48762135      -0.84316475      -0.03237773       0.01907910       0.08638214
H        0.86673097      -0.60311782       0.86585054       0.00022736      -0.04587068       0.08292233
H        0.88386984       2.00769894      -0.76818488      -0.01582266      -0.02329500       0.00226531
N        0.44559742       2.03651457       1.24694358       0.01048186      -0.00859042       0.01781931
O        0.09419964       3.26458407       1.12259930       0.01987784       0.01926014       0.00362749
O        0.29177610       1.42177822       2.29416883      -0.00410853       0.00421524      -0.01005197
11
Properties=species:S:1:pos:R:3:mp2_forces:R:3 R1=H R2=H R3=NO2 R4=H lg=Cl nu=Br rxn-id=27 mp2_energy=-90227.92422211217 pbc="F F F"
C        0.61796071      -0.05482459      -0.04583056      -0.01308089      -0.01574894       0.00612064
C        1.06863489       1.37460731       0.10573627      -0.00627070      -0.02498137       0.01475576
H        2.12556648       1.36987530       0.31173322       0.00373602       0.00238377      -0.00457459
Cl      -1.15883183      -0.13574434      -0.30238796       0.01150375       0.01873810      -0.09477232
Br       3.92765837      -0.54408209       0.47173322       0.01174635       0.02282084      -0.04590101
H        1.16518070      -0.47819979      -0.91144224      -0.02674205       0.01688965       0.04528796
H        0.82705754      -0.54236129       0.85196939       0.01211175      -0.03966784       0.07667746
H        0.84383083       2.02560407      -0.71448803      -0.00359075      -0.00352016      -0.01890893
N        0.42330115       2.08070367       1.27945812       0.00864840       0.01177968       0.00343029
O        0.07022481       3.24930074       1.12749466       0.01004540       0.00509309       0.00834809
O        0.23728601       1.36723663       2.33151072      -0.00810717       0.00621318       0.00953664
11
Properties=species:S:1:pos:R:3:mp2_forces:R:3 R1=H R2=H R3=NO2 R4=H lg=Br nu=Cl rxn-id=29 mp2_energy=-90227.66649340076 pbc="F F F"
C        0.63830940      -0.06072886      -0.00565728      -0.01662047      -0.01874569       0.00214181
C        1.12682668       1.41648074       0.15836070      -0.00123729      -0.00067576       0.01219984
H        2.17465433       1.32372750       0.33954212       0.00709719       0.00957240      -0.00112612
Br      -1.32200199      -0.06954918      -0.24485912       0.00769569       0.00137802      -0.09548133
Cl       3.75915903      -0.54390811       0.27400991       0.01754595       0.01884623      -0.04029828
H        1.07391963      -0.45734097      -0.88959640      -0.03272941       0.01401609       0.05285008
H        0.84956498      -0.60372594       0.84734419       0.00934886      -0.03971473       0.06872373
H        0.92814392       2.02029268      -0.76332016      -0.02657112      -0.00536525      -0.01556359
N        0.42973880       2.08882496       1.23964076       0.01812362       0.03563434      -0.01417212
O        0.04765949       3.22130900       1.08658395       0.02814394      -0.00937034       0.01217612
O        0.38753924       1.47464593       2.32899343      -0.01079697      -0.00557531       0.01854985
11
Properties=species:S:1:pos:R:3:mp2_forces:R:3 R1=H R2=H R3=NO2 R4=H lg=Br nu=Br rxn-id=30 mp2_energy=-147730.89102443223 pbc="F F F"
C        0.62731784       0.02528530      -0.02982148      -0.01885589      -0.01956342       0.01159385
C        1.09581514       1.41140126       0.13014038      -0.01608875      -0.02696004       0.02133543
H        2.18668415       1.35341447       0.32889378      -0.00129889       0.00415856      -0.01554173
Br      -1.33078147      -0.09938016      -0.27636091       0.00611942       0.01403132      -0.09650134
Br       3.93756874      -0.61720660       0.32227397       0.01620882       0.02253488      -0.04129537
H        1.13212433      -0.46410051      -0.87897625      -0.02460171       0.01858442       0.06004479
H        0.90296038      -0.60159173       0.86965046       0.01981684      -0.03990411       0.06795535
H        0.87914800       1.99488217      -0.77681607      -0.00619534      -0.00328810       0.01832390
N        0.45091932       2.07469532       1.23902021      -0.01678713       0.02009638      -0.02845012
O        0.04693176       3.25795529       1.11669616       0.02751738       0.01631744       0.01502637
O        0.39090149       1.48945256       2.30610559       0.01416522      -0.00600734      -0.01249112
13
Properties=species:S:1:pos:R:3:mp2_forces:R:3 R1=H R2=H R3=NO2 R4=NO2 lg=F nu=F rxn-id=32 mp2_energy=-18685.527835335157 pbc="F F F"
C        0.59082152      -0.12014534      -0.03488325       0.02305093       0.07294311       0.00275591
C        1.08920725       1.29326878      -0.15726964      -0.02323439       0.01537556       0.00629323
H        2.20146383       1.33458617      -0.07222217      -0.03394831      -0.04402227      -0.00976868
F       -0.70002264      -0.14406173       0.61986869      -0.01950022      -0.04015816      -0.06341578
F        2.68944863      -0.00586446      -1.29106261       0.01253434      -0.02103398      -0.03113794
H        0.47159327      -0.52480373      -1.02329486       0.01311380       0.04017383       0.01113711
H        1.29205550      -0.68750047       0.58985274       0.02625007       0.00553930       0.07222079
N        0.47600814       2.19607680       0.92517497      -0.05847816      -0.02467592      -0.01515741
O       -0.45990903       2.89139063       0.61206754       0.04691846       0.00919306       0.02409974
O        0.87799049       2.01996183       2.02425332       0.02498192       0.00408612       0.05021592
N        0.81524007       1.98977027      -1.47750057       0.03901668       0.00586665      -0.00397260
O        1.37849453       2.97732174      -1.68886042      -0.02938790      -0.02651459      -0.01837558
O       -0.07944637       1.47720848      -2.19556950      -0.02131720       0.00322729      -0.02489471
13
Properties=species:S:1:pos:R:3:mp2_forces:R:3 R1=H R2=H R3=NO2 R4=NO2 lg=Cl nu=F rxn-id=33 mp2_energy=-28482.095370107312 pbc="F F F"
C        0.49811650      -0.11426464       0.00045608      -0.01481198       0.03167692      -0.00411183
C        0.87892510       1.30725264      -0.01720088      -0.02465929      -0.00942784      -0.03760118
H        2.02387024       1.34691692       0.11024987      -0.03096242      -0.03137411      -0.04542779
Cl      -1.16854467      -0.34882199       0.67325120      -0.01313909      -0.01785852      -0.07357046
F        2.60292543       0.20997977      -1.26167703      -0.03375741      -0.03113267       0.02901774
H        0.48749578      -0.48307652      -0.99163563       0.07652743      -0.00950848       0.02436737
H        1.19016260      -0.68612847       0.59230036       0.05977663       0.00629395       0.03605660
N        0.15323623       2.16976859       1.03749153       0.01017595       0.00769855       0.00336198
O       -0.70823554       2.88335287       0.67054837       0.03493285       0.04694111       0.07156128
O        0.64610108       1.97671908       2.11853301      -0.00806411       0.01893882       0.01010129
N        0.64475099       1.97800003      -1.31656006      -0.01972774       0.04742252       0.01298599
O        1.29144695       3.04478908      -1.53892334      -0.01021089      -0.04601085       0.03069553
O       -0.14004803       1.47199589      -2.09775625      -0.02607993      -0.01365940      -0.05743652
13
Properties=species:S:1:pos:R:3:mp2_forces:R:3 R1=H R2=H R3=NO2 R4=NO2 lg=Cl nu=Cl rxn-id=34 mp2_energy=-38280.02545725208 pbc="F F F"
C        0.58176327      -0.08554009       0.03421312      -0.00782492      -0.05450669      -0.01373523
C        1.00394548       1.36419869       0.05989461       0.01206032       0.00671663      -0.00055394
H        2.11919300       1.34627611       0.13094934       0.02108757       0.00572655       0.01421891
Cl      -1.14364265      -0.26125076      -0.39538817      -0.03652144      -0.00202687      -0.00459238
Cl       3.57193938      -0.31931399       1.07041479       0.02465326       0.02708213      -0.00907740
H        1.17732154      -0.57682566      -0.73674999      -0.03989945       0.02173392      -0.00624801
H        0.73772726      -0.55852227       0.94889898      -0.00724471       0.01037589       0.01412694
N        0.57176068       2.06300359       1.28652350       0.03058737       0.02932712      -0.01184672
O        1.06632505       3.18520729       1.49283808      -0.01576287       0.00085489       0.01390931
O       -0.18600394       1.51834027       2.09933913      -0.01503655      -0.02567901      -0.01283637
N        0.57578794       2.15488820      -1.11763394       0.03901317       0.02189296       0.01667518
O       -0.35827271       2.99047716      -0.90755750      -0.01321888      -0.00878671       0.00906598
O        1.05507229       1.82754321      -2.15194552       0.00810712      -0.03271082      -0.00910628
13
Properties=species:S:1:pos:R:3:mp2_forces:R:3 R1=H R2=H R3=NO2 R4=NO2 lg=Cl nu=Br rxn-id=35 mp2_energy=-95783.2380397326 pbc="F F F"
C        0.57999665      -0.11390865       0.03624331       0.01415533       0.07556628      -0.01120253
C        1.03616280       1.33480747      -0.12406381       0.02481732       0.03842081       0.00791130
H        2.15453240       1.31011132      -0.11904989       0.01724350      -0.00144653      -0.00903034
Cl      -1.15585356      -0.23379607       0.45030784       0.00245435       0.03068097      -0.00931459
Br       3.67789747      -0.42735888      -1.10806292       0.02674715       0.03634679       0.00860837
H        0.78529224      -0.56449677      -0.91309140      -0.01595877      -0.02924350       0.05379933
H        1.21445005      -0.58644902       0.82557118      -0.05667970      -0.01432357      -0.05282932
N        0.55419067       2.14475801       1.07767116      -0.02741661       0.00286016      -0.01631738