11
Properties=species:S:1:pos:R:3:mp2_forces:R:3 R1=H R2=H R3=H R4=NO2 lg=F nu=Cl mp2_energy=-22926.101095288046 pbc="F F F"
C        0.72917615      -0.00708646       0.02562817      -0.33164075      -2.18738122      -1.50352807
C        0.75495025       1.46111079      -0.02668298      -1.26197307       0.24209495       0.64540756
H        1.71591458       1.88568955      -0.09607404       1.45479749       0.49701039      -0.27593164
F       -1.27356015       0.26764074       0.12728061      -0.08484974       0.09129433       0.02213705
Cl       2.72177740      -0.54354851      -0.03786165       0.15682894       0.05451466       0.02165276
H        0.42119070      -0.58351028      -0.88925258       0.44776743       1.08195731       1.30259876
H        0.50920318      -0.49628278       0.94720374      -0.06277954       0.07332596       0.30118637
H        0.23964323       1.89851199       0.82234009      -0.08462579      -0.18523115      -0.00974722
N        0.02197087       1.96694688      -1.20569999      -0.24958942       1.31748275       1.51657579
O       -0.53608639       3.05291088      -1.06021524      -0.10782757       0.13137888      -0.04017586
O        0.11304411       1.37856543      -2.24240785       0.12389202      -1.11644684      -1.98017548
11
Properties=species:S:1:pos:R:3:mp2_forces:R:3 R1=H R2=H R3=H R4=NO2 lg=Cl nu=Cl mp2_energy=-32723.483299069427 pbc="F F F"
C        0.57721378      -0.02968723       0.08699310      -1.16973930       0.14588248      -4.57054031
C        0.70696767       1.44628634      -0.04674376      -2.04769687       0.69812043       2.21926328
H        1.69509294       1.80172592       0.02257565       1.32600971       0.28751157       0.03521485
Cl      -1.67078786      -0.07585523       0.38482637       0.42251478       0.05881906       0.03766619
Cl       2.89054708      -0.39910770      -0.31332918       0.37731613      -0.17423547       0.04960678
H        0.44808566      -0.58428787      -0.87304848       0.21929232       0.49412234       1.40831159
H        0.71820748      -0.52928869       0.96604547       0.42474831      -0.91039196       2.07042193
H        0.10148836       1.89444925       0.78453490       0.61936626      -0.06546838      -0.83612927
N        0.15867158       2.05397746      -1.28032915      -0.12635542      -1.89904391      -1.26165956
O       -0.22656927       3.20721786      -1.23111127      -0.07638547       0.78739158       0.21352733
O        0.16096572       1.35114201      -2.30326001       0.03092955       0.57729227       0.63431720
11
Properties=species:S:1:pos:R:3:mp2_forces:R:3 R1=H R2=H R3=H R4=NO2 lg=Cl nu=Br mp2_energy=-90226.75100580587 pbc="F F F"
C        0.58924996      -0.01359564       0.00568299       0.13980161       1.24964399       2.87152030
C        0.62307991       1.48999438       0.00335468       0.20636172      -1.11431523      -1.04792645
H        1.61423576       1.88375077       0.12581478       0.59972470       0.11657635      -0.12283532
Cl      -1.68807112      -0.07657343       0.39792793      -0.02077671      -0.04942821      -0.06800876
Br       2.98658811      -0.45215137      -0.33657525       0.09445502       0.04005159      -0.04007257
H        0.43067112      -0.57151077      -0.83471147      -0.32646701      -1.10809282      -1.93143895
H        0.70536819      -0.48899029       0.97111037       0.02281437       0.02750954      -0.38809881
H       -0.00230512       1.91772892       0.73965535      -0.76402120       0.30191285       0.74710405
N        0.13285641       2.03046251      -1.29719122       0.42015659       0.54176231       0.59370621
O       -0.15309481       3.21620173      -1.27012294      -0.37355509       0.99383766       0.10882949
O        0.13642690       1.35560307      -2.30004584       0.00150602      -0.99945804      -0.72277920
11
Properties=species:S:1:pos:R:3:mp2_forces:R:3 R1=H R2=H R3=H R4=NO2 lg=Br nu=Cl mp2_energy=-90226.64016962326 pbc="F F F"
C        0.65369295      -0.06844801       0.01898088       0.59782203       2.84931229       1.73114693
C        0.69020738       1.49126118      -0.00925228      -0.96301712      -1.14643596       0.43795361
H        1.71258029       1.85016491       0.05611220       0.06439475       0.12696524      -0.14353119
Br      -1.79729052      -0.11668205       0.39376938      -0.15656568      -0.06661978      -0.04879560
Cl       2.93665688      -0.41275360      -0.23936235      -0.32029065       0.01809365       0.01943839
H        0.49061656      -0.58381370      -0.85052140      -0.32750236      -1.16049329      -1.82582040
H        0.69440818      -0.55129500       0.97428062       0.11313493      -0.06037202      -0.00657695
H        0.06143485       1.91919593       0.80579049       0.56446224      -0.32377101      -0.76179480
N        0.12459459       2.05999923      -1.31506031       0.90544508       1.21224251       3.93978058
O       -0.20608607       3.23541740      -1.23581855      -0.33076088       0.41465811      -0.26800571
O        0.16121161       1.38830357      -2.28257520      -0.14712238      -1.86357974      -3.07379487
11
Properties=species:S:1:pos:R:3:mp2_forces:R:3 R1=H R2=H R3=H R4=NO2 lg=Br nu=Br mp2_energy=-147729.9823503805 pbc="F F F"
C        0.60744989      -0.01973908       0.05479015      -0.25570527      -0.28310953       0.24229548
C        0.66204549       1.45846007      -0.01567288       0.14769198       0.82823439       0.35507378
H        1.68755505       1.85045904       0.02477065      -0.20238769      -0.20360622      -0.23228385
Br      -1.83071240      -0.07906518       0.34710360       0.03397543      -0.05509529       0.00557997
Br       3.03975694      -0.46515189      -0.21452915       0.07682169      -0.03945400       0.01150451
H        0.47379504      -0.55418163      -0.85755934       0.02431214      -0.34517180      -0.15876479
H        0.68403333      -0.52661643       1.00606214       0.01308280       0.13926252      -0.30370751
H        0.10258117       1.95005526       0.77778392      -0.09581806      -0.15928216      -0.04654171
N        0.09023605       2.01358424      -1.28505706       0.46079255       1.43102541       0.50459190
O       -0.27593794       3.18964822      -1.22540283      -0.21762884      -0.06561380       0.38386774
O        0.17752255       1.40167048      -2.32367233       0.01486330      -1.24718954      -0.76161552
10
Properties=species:S:1:pos:R:3:mp2_forces:R:3 R1=H R2=H R3=H R4=CN lg=Cl nu=Br mp2_energy=-87176.61085383344 pbc="F F F"
C        0.61769450      -0.03031894       0.00868903       0.09043846       1.91905072       0.08434441
C        0.58395937       1.52471410       0.03637613      -0.59948372      -1.25601031      -1.31464609
H        1.53561416       1.90898690       0.33847931       0.53366991       0.22543728       0.40597069
Cl      -1.67480641      -0.33424760       0.47228551       0.03602272       0.06979285      -0.00182563
Br       3.02387811      -0.23635863      -0.49691239      -0.23776447      -0.01885494       0.02145322
H        0.39855347      -0.56513509      -0.87167518       0.00464445      -0.41412726      -0.65253285
H        0.78811859      -0.51984040       0.92504151       0.22137167      -0.49781059       0.65007378
H       -0.21486961       1.83469276       0.69352528      -0.12185809       0.19761610       0.28374674
C        0.30516599       2.07047019      -1.31088597       1.72715187      -3.81442127       8.83481285
N        0.10792762       2.49858981      -2.30879575      -1.65419279       3.58932742      -8.31139710
10
Properties=species:S:1:pos:R:3:mp2_forces:R:3 R1=H R2=H R3=H R4=CN lg=Br nu=Cl mp2_energy=-87176.89257665082 pbc="F F F"
C        0.57769458      -0.01877883       0.01564801      -0.17412154      -0.11379830       1.69728479
C        0.54980676       1.46752491       0.03262684       1.18412209       1.52892969      -0.54743858
H        1.55107927       1.86637539       0.35083563      -0.86629100      -0.46975903      -0.16574849
Br      -1.78996530      -0.39689479       0.47479853       0.32209571       0.02949366      -0.08642860
Cl       2.94455748      -0.18495378      -0.47754708      -0.03831519      -0.00546031      -0.01589038
H        0.46303101      -0.55947924      -0.86643133      -0.06116916      -0.74158682      -1.09808222
H        0.83431340      -0.52735811       0.94275383      -0.11411550       0.16812151      -0.50818404
H       -0.19275030       1.84375534       0.72597756      -0.19764776       0.03882061       0.11821500
C        0.29827021       2.08179045      -1.29572155       0.27459005      -1.32619619       2.34838596
N        0.09397613       2.58273495      -2.31658241      -0.32914770       0.89143518      -1.74211344
10
Properties=species:S:1:pos:R:3:mp2_forces:R:3 R1=H R2=H R3=H R4=CN lg=Br nu=Br mp2_energy=-144680.00513942423 pbc="F F F"
C        0.61061043       0.00764438       0.04358046      -0.42597057      -1.33991290      -2.79402655
C        0.55777540       1.50635856       0.03017683       0.03746708       0.53510096       0.09974386
H        1.49477181       1.88129608       0.43960196       0.03367828       0.14602043       0.04685773
Br      -1.80218100      -0.37127835       0.53042006      -0.06896759      -0.02674369       0.04826441
Br       2.98387289      -0.21922520      -0.55591538       0.01741021       0.04344384       0.07162696
H        0.42530406      -0.59404763      -0.91081229       0.26548210       1.14722452       1.95092103
H        0.81752170      -0.50805059       0.94670354       0.08803813      -0.23392607       0.47999503
H       -0.26516698       1.85109860       0.66714534       0.14788920      -0.00814976      -0.13786314
C        0.38019197       2.09620458      -1.30253621       0.33855997      -1.54667023       2.88146092
N        0.16746798       2.57660462      -2.32235732      -0.43358681       1.28361290      -2.64698025
12
Properties=species:S:1:pos:R:3:mp2_forces:R:3 R1=H R2=H R3=H R4=CH3 lg=F nu=F mp2_energy=-8639.682653030426 pbc="F F F"
C        0.58495138       0.02943951       0.04970224       0.06169235      -2.23235159      -0.05195172
C        0.65691566       1.49657390       0.03488305      -3.11368638       0.97722141       0.19984883
H        1.64524895       1.79048141       0.19289130       1.69593321       0.55705087       0.30702493
F       -1.18083589      -0.05027183       0.62718538       0.15232784       0.14064755      -0.06153638
F        2.25786507      -0.19324261      -0.64056384      -0.10005364       0.10161299       0.06381219
H        0.23694231      -0.57050832      -0.79878754       0.16927981       0.60439215       0.56748313
H        0.87508449      -0.52138184       0.94363320      -0.12843173       0.28304596      -0.36717476
H       -0.01886304       1.87893085       0.87251440       0.92978844      -0.40405542      -1.09280497
C        0.15618119       2.01648446      -1.32934409       0.97210377       1.08897361       1.02964854
H        0.81735911       1.61354173      -2.07006507       0.34972330      -0.35604311      -0.60385573
H       -0.84612171       1.69828484      -1.50233168      -0.83926208      -0.29351083      -0.06025616
H        0.21845859       3.12486988      -1.40085521      -0.14941489      -0.46698359       0.06976209
12
Properties=species:S:1:pos:R:3:mp2_forces:R:3 R1=H R2=H R3=H R4=CH3 lg=Cl nu=F mp2_energy=-18437.00113934597 pbc="F F F"
C        0.42056924       0.00803800       0.07295572       0.77876706      -0.65238297       2.57141013
C        0.56282486       1.48512905       0.09141053      -2.21214927       1.34679289      -0.18104592
H        1.55353625       1.72054632       0.36972124       1.19216712       0.17599745       0.22216474
Cl      -1.49964915      -0.28729889       0.84438124      -0.03109847      -0.06991920       0.00955327
F        2.28363529      -0.04272983      -0.84704490       0.06384894       0.02258780      -0.09369533
H        0.23959456      -0.51742733      -0.79981984      -0.23887274      -0.60966705      -1.50996398
H        0.97662573      -0.57195136       0.83823300      -0.62226059       0.61575731      -0.72421072
H       -0.14857122       1.96853498       0.82593800       0.73986551      -0.59188587      -0.57987224
C        0.26460135       2.05583420      -1.31121435      -0.70585069      -0.95183493       0.70565007
H        1.00986983       1.60539758      -1.94330023       0.15274506      -0.21078841      -0.50090297
H       -0.77706730       1.79131391      -1.61559912       0.76431435       0.05861098       0.08160618
H        0.34751799       3.12321557      -1.33887316       0.11852371       0.86673200      -0.00069321
12
Properties=species:S:1:pos:R:3:mp2_forces:R:3 R1=H R2=H R3=H R4=CH3 lg=Br nu=Br mp2_energy=-143241.0744717479 pbc="F F F"
C        0.57354499       0.02668718       0.06941532      -0.00501989       0.42613381       0.67552852
C        0.55538658       1.53961732       0.05380402       1.23933526      -0.50095802      -0.88631534
H        1.58305569       1.81737916       0.33194949      -0.32050522       0.31210827      -0.06873182
Br      -1.85068459      -0.29212687       0.64024558      -0.19469923      -0.02303578       0.07520813
Br       2.89336809      -0.37241390      -0.70341103      -0.04894773       0.04064135       0.03920714
H        0.29489989      -0.55453763      -0.76203030      -0.18583172      -0.38165135      -0.74896625
H        0.80032395      -0.50586399       0.97783497       0.03254269       0.07708558      -0.00617441
H       -0.11297482       1.91239192       0.79086283      -0.63630051       0.23317068       0.74891658
C        0.20444066       2.09016357      -1.32655060       0.17268660      -1.10979212      -0.27395945
H        0.90537066       1.68550251      -2.06402744       0.04429067      -0.01028278       0.08669549
H       -0.79465084       1.76337465      -1.63328743      -0.00714702       0.14898904       0.20100742
H        0.27828226       3.15759667      -1.39085432      -0.09040388       0.78759132       0.15758400
11
Properties=species:S:1:pos:R:3:mp2_forces:R:3 R1=H R2=H R3=H R4=NH2 lg=F nu=F mp2_energy=-9075.729826368603 pbc="F F F"
C        0.60138593       0.02658206      -0.00722919      -0.12470823      -1.27476334      -1.46190811
C        0.69755629       1.48817638      -0.03791858       3.07792421       0.72543559      -2.16458224
H        1.80419207       1.72548568      -0.08903675      -1.24045192      -0.24640019       0.02237407
F       -1.19518492       0.05470206      -0.07092018      -0.04874055      -0.06943677       0.11572125
F        2.44866978      -0.32466703       0.09367691      -0.05615839       0.12419982       0.05913135
H        0.64652942      -0.52326911      -0.94063261      -0.07544133       0.29684330       0.26457543
H        0.58197500      -0.54036565       0.87619131      -0.14405588      -0.26409185       0.88138900
H        0.34609519       1.87594344       0.85179345      -1.17877883       0.93355446       2.18381148
N        0.03666494       2.04404769      -1.23540136      -0.50233307       1.42892609       0.36093287
H       -0.09668746       3.08821093      -1.09945475       0.27670144      -1.70927813      -0.14106555
H       -0.88708587       1.61992704      -1.16414081       0.01604253       0.05501103      -0.12037956
11
Properties=species:S:1:pos:R:3:mp2_forces:R:3 R1=H R2=H R3=H R4=NH2 lg=F nu=Cl mp2_energy=-18873.12357924031 pbc="F F F"
C        0.70105746       0.04145575      -0.00713624      -0.55791265      -1.03052782       1.02155234
C        0.71812443       1.51829710      -0.01202038       1.16521406       1.47261262      -0.66024109
H        1.76994895       1.92158368      -0.02713969      -0.99888326      -0.41268969       0.06450483
F       -1.29381173       0.16701240      -0.05479678       0.04713805      -0.17024452       0.15192805
Cl       2.84656530      -0.51034456       0.10516910      -0.03674107       0.03903049      -0.03729946
H        0.55250258      -0.45314632      -0.94106240       0.12891588      -0.25964693      -0.16545796
H        0.50770972      -0.48920954       0.93215106       0.15215783       0.30429765      -0.83122104
H        0.23459392       1.85563206       0.91338626      -0.10266066       0.04761833      -0.10864230
N        0.03560989       1.98318006      -1.25530271       3.08930498       2.50976017       0.54948168
H       -0.13643012       2.99721837      -1.13635083       0.43508349      -0.62113608      -0.21909715
H       -0.82242762       1.59044434      -1.14586630      -3.32161666      -1.87907421       0.23449209
11
Properties=species:S:1:pos:R:3:mp2_forces:R:3 R1=H R2=H R3=H R4=NH2 lg=Cl nu=F mp2_energy=-18872.908737475802 pbc="F F F"
C        0.51352227      -0.05138663       0.03435684      -0.41080516       2.70908833      -2.06700571
C        0.69460352       1.50541331      -0.04508979      -2.13243366      -1.36006806       1.94664940
H        1.73063649       1.67572294      -0.04458403       1.35875919      -0.00758027       0.05683562
Cl      -1.54240826      -0.20613149       0.11449968       0.16725990      -0.06786004       0.03315754
F        2.64295429      -0.15714703       0.04054569       0.09149250      -0.10623875       0.05187869
H        0.68649683      -0.52151159      -0.91617044       0.03186638      -0.25645308       0.10554996
H        0.73849203      -0.55309430       0.91018881       0.47434453      -0.68879803       1.35658352
H        0.22168705       1.91081030       0.92554604       0.61884212      -0.30512621      -1.12125430
N        0.10111594       2.06449486      -1.24394535      -0.86127767       0.13556277      -0.25584929
H        0.22134784       3.06853896      -1.20912430       0.23554333       0.12589804      -0.06590599
H       -0.91270925       1.92798069      -1.19335316       0.42640854      -0.17842471      -0.04063946
11
Properties=species:S:1:pos:R:3:mp2_forces:R:3 R1=H R2=H R3=H R4=NH2 lg=Br nu=Br mp2_energy=-143676.98679176305 pbc="F F F"
C        0.62946169       0.05465386       0.01716770       0.34917019      -1.13154473      -0.42443226
C        0.65805699       1.52456390       0.02453201      -0.16106474       0.46457096      -0.11445332
H        1.69074522       1.86682919       0.10062521      -0.07382359      -0.00531971       0.06742600
Br      -1.90061908      -0.17922192       0.17839960       0.16191850       0.02322639      -0.02754529
Br       3.10630729      -0.45258148      -0.06618072       0.00609886      -0.01049717       0.01466515
H        0.60947807      -0.48644764      -0.91857317      -0.18856244       0.18176958       0.15990355
H        0.66462851      -0.50935385       0.91532751      -0.08905126      -0.24164048       0.46016391
H        0.10100291       1.86315264       0.89302858      -0.07686345       0.14617281       0.45137019
N        0.11050061       2.01728597      -1.21874274       2.66477076       2.88393627      -0.53927106
H        0.24382076       3.07193791      -1.22448642      -0.51711895      -1.91052226      -0.15487175
H       -0.83142067       1.79562480      -1.30102137      -2.07547387      -0.40015167       0.10704489
11
Properties=species:S:1:pos:R:3:mp2_forces:R:3 R1=H R2=H R3=NO2 R4=H lg=Cl nu=Cl mp2_energy=-32723.55843436235 pbc="F F F"
C        0.68501875      -0.01222585       0.00102251       0.87374400      -0.84700969      -1.94933181
C        0.64441295       1.45428005      -0.03090794       1.62566210       1.14290801       1.59381645
H        1.69611966       1.85524899      -0.10593430      -1.06794394      -0.22547445       0.32443583
Cl      -1.70708172      -0.13912037      -0.34013366      -0.25977799       0.01290953      -0.00771152
Cl       2.88280395      -0.38438706       0.25844677      -0.39823220       0.11575565      -0.00623853
H        0.70611164      -0.53823619      -0.95879493      -0.09488542       0.31969439       0.72934404
H        0.48887373      -0.54248998       0.88175331      -0.33001609      -0.48190815       0.87362785
H        0.07876133       1.91795748      -0.79483244      -0.84605724       0.06937952      -0.73875766
N        0.09364939       2.02713696       1.28645347       0.38150593       1.60268096      -1.63394980
O       -0.28143117       3.22809747       1.19274876       0.42434284      -2.10767380       0.65992632
O        0.18145393       1.34688176       2.29677358      -0.30834199       0.39873804       0.15483883
11
Properties=species:S:1:pos:R:3:mp2_forces:R:3 R1=H R2=H R3=NO2 R4=H lg=Cl nu=Br mp2_energy=-90226.76227715428 pbc="F F F"
C        0.60723369      -0.01517124      -0.01047966       0.17484040      -0.50575243      -2.34733541
C        0.62449767       1.47990021      -0.01048245       0.02773245      -0.67897883      -0.07260977
H        1.61154066       1.88543870      -0.18692085       0.26360832       0.04405331       0.08155458
Cl      -1.72048380      -0.13783002      -0.35691875       0.13449648       0.00570345       0.06712017
Br       3.04864102      -0.35642429       0.28536135      -0.11506281      -0.01931445       0.02638735
H        0.69478703      -0.55948613      -0.98248373      -0.01574423       0.81981410       1.28264334
H        0.45425975      -0.57473540       0.86386013      -0.07419473      -0.39909821       0.88087061
H       -0.05279773       1.86968819      -0.75676600      -0.20750696       0.13251700      -0.01103566
N        0.18119185       2.03479977       1.28285382      -0.69235952       0.64931997       1.72242260
O       -0.10102287       3.24621443       1.24731841       0.22268130      -0.66560437       0.02870188
O        0.12460793       1.34612409       2.32444751       0.28150934       0.61734046      -1.65871968
11
Properties=species:S:1:pos:R:3:mp2_forces:R:3 R1=H R2=H R3=NO2 R4=H lg=Br nu=Cl mp2_energy=-90226.71464107325 pbc="F F F"
C        0.67761971      -0.03610314      -0.00450318       0.30152802      -0.40568547      -0.40466265
C        0.68528625       1.47131598       0.00862055       0.19385010      -0.13726785      -0.18438677
H        1.70223670       1.85244560      -0.00405133       0.19731531       0.04030112      -0.04681340
Br      -1.76534602      -0.11573790      -0.32350060      -0.54200262      -0.03595625      -0.06914997
Cl       2.90501303      -0.42887098       0.18791710      -0.20941814       0.08891356       0.03091912
H        0.69376278      -0.54801849      -0.97717765      -0.00453659       0.45169345       0.89260579
H        0.47694076      -0.57998838       0.91080457       0.19413510       0.18602472      -0.36261754
H        0.12585325       1.89650964      -0.81782964      -0.06525233      -0.01594124      -0.01555786
N        0.11025889       2.07898983       1.23746451       1.07746344      -3.99715009       3.14654995
O       -0.30943239       3.19025199       1.19046570      -1.07827090       2.91025093      -0.69018330
O        0.20334992       1.42461524       2.32032540      -0.06481144       0.91481713      -2.29670337
11
Properties=species:S:1:pos:R:3:mp2_forces:R:3 R1=H R2=H R3=NO2 R4=H lg=Br nu=Br mp2_energy=-147729.97521754727 pbc="F F F"
C        0.59539892       0.01187667      -0.01868480      -0.58871877      -0.01505505      -0.45754208
C        0.64012843       1.50934603       0.01651817      -0.10492113      -1.31422219       0.31116121
H        1.63932863       1.86081112      -0.04261378       1.09982810       0.32380767       0.10881450
Br      -1.82345943      -0.15696849      -0.36157123       0.27189619       0.05961669       0.06701940
Br       3.07974663      -0.45729411       0.24848224       0.04403873       0.06900639      -0.00477352
H        0.70330044      -0.51098433      -0.94276266       0.15419978       0.08440450      -0.30367980
H        0.49635682      -0.57961392       0.85462389       0.01003928      -0.06667056       0.59350956
H        0.08710715       1.94156483      -0.77227305      -0.75471171       0.42795389      -0.82391270
N        0.09486522       2.06073622       1.26521580       0.55449877      -0.93964827       1.46286695
O       -0.28853915       3.21353929       1.21946241      -0.52045356       1.06349909      -0.13615609
O        0.18272981       1.39157101       2.30443284      -0.16569569       0.30730783      -0.81730743
13
Properties=species:S:1:pos:R:3:mp2_forces:R:3 R1=H R2=H R3=NO2 R4=NO2 lg=F nu=F mp2_energy=-18684.473630016637 pbc="F F F"
C        0.58150216      -0.09151981      -0.02728597      -0.36968082      -0.97908407      -0.47337576
C        0.65635259       1.38134549       0.10366635       1.57246289       0.62922926       2.00644696
H        1.69961559       1.64453527       0.47515695      -1.51312048      -0.12431383      -0.68991016
F       -1.01360954      -0.16758556       0.89319155       0.05783321      -0.19508219      -0.06857662
F        2.06184426      -0.03542721      -0.90157825      -0.13532086      -0.08935075      -0.01201766
H        0.03235644      -0.52028066      -0.86837281       0.37476728       0.26444618       0.63369206
H        0.99529789      -0.72416444       0.74890070      -0.16889871       0.30290964      -0.20548587
N       -0.28245273       2.02239906       1.15951696      -1.03280425       0.11045202      -4.24681497
O       -1.29132783       2.58889382       0.68669545       1.36156728      -0.53145419       1.58112258
O        0.12465549       1.94365701       2.27976366      -0.06376166       0.29613482       1.94705692
N        0.45190696       2.07745836      -1.17038394      -0.21731074       0.06355022      -1.09051437
O        1.03713855       3.15912649      -1.30400523      -0.26805655      -0.24720226       0.07257360
O       -0.28127778       1.55535142      -2.01986861       0.40232340       0.49976513       0.54580330
13
Properties=species:S:1:pos:R:3:mp2_forces:R:3 R1=H R2=H R3=NO2 R4=NO2 lg=Cl nu=F mp2_energy=-28481.478369875203 pbc="F F F"
C        0.46987852      -0.11273307       0.00429750      -0.46145171       0.28766122      -0.92796769
C        0.68513188       1.38871002       0.13791543      -0.63948072      -1.37160210       0.53962358
H        1.67774112       1.52765671       0.50633978       0.40770397       0.41863520       0.13905477
Cl      -1.40234298      -0.52895868       1.01173796       0.34716002       0.02857053      -0.21895148
F        2.10687932       0.05422072      -0.96364114       0.27700930       0.11064472      -0.12229702
H        0.13039762      -0.45100774      -0.97008201      -0.15961981       0.07469915       0.64844318
H        1.05444391      -0.77002261       0.60512822      -0.04277788      -0.05202032       0.42961198
N       -0.26398710       2.10614370       1.10281474       1.01694808      -0.60579666      -1.76426242
O       -1.20136227       2.70985113       0.63949746      -0.98599460       0.64351292      -0.24615305
O        0.06355626       2.00912446       2.25366818       0.26157249       0.01223037       1.82673931
N        0.56564118       2.05835375      -1.16368675       2.04251688       3.49118774       0.46332494
O        1.21293278       3.17849106      -1.19815350      -1.97740526      -3.20081394      -0.32131395
O       -0.16403303       1.60751000      -2.02595303      -0.08618077       0.16309117      -0.44585215
13
Properties=species:S:1:pos:R:3:mp2_forces:R:3 R1=H R2=H R3=NO2 R4=NO2 lg=Cl nu=Cl mp2_energy=-38278.783278788076 pbc="F F F"
C        0.55580350      -0.06939669      -0.00580292      -0.20319183      -0.99740348       0.00551578
C        0.67877091       1.38950572      -0.11941352       0.30251756       1.23476286      -0.07925475
H        1.69618502       1.71632803      -0.43789390      -0.99661162      -0.26147349       0.19014103
Cl      -1.65049955      -0.33793683      -0.56025992       0.03417586      -0.07679767       0.02427171
Cl       2.67335071      -0.23408224       0.75464109       0.40680379      -0.08662332       0.17120157
H        0.83327776      -0.68213990      -0.84714773      -0.10941944       0.15256804       0.06734860
H        0.24555887      -0.49268324       0.92221957      -0.00638354      -0.09312066       0.11298109
N        0.41446924       2.12247720       1.17952465       1.08592168      -1.05053322      -1.52425912
O        0.90353168       3.22045549       1.23922004       0.59180194       1.85867683       0.02026804
O       -0.18434698       1.55676960       2.04247173      -1.39855077      -1.02588125       1.67526540
N       -0.26585482       2.00009621      -1.11390126       0.53687760       0.66873926      -1.06698425
O       -1.10859444       2.81050735      -0.79063681      -0.52096289       0.23560143       0.90543873
O        0.02409081       1.74086697      -2.27018372       0.27702166      -0.55851534      -0.50193382
13
Properties=species:S:1:pos:R:3:mp2_forces:R:3 R1=H R2=H R3=NO2 R4=NO2 lg=Cl nu=Br mp2_energy=-95781.90855655553 pbc="F F F"
C        0.56732435      -0.09463756       0.01056219      -0.22650463       1.70523389      -0.81373732
C        0.66593443       1.46279763       0.09726825       0.19977186      -1.94209706       0.43456862
H        1.65068891       1.76407105       0.43651760       0.11982164      -0.03620970      -0.18915079
Cl      -1.70794083      -0.35017374       0.61633152       0.02098136       0.02194668      -0.00801569
Br       2.80005391      -0.30801370      -0.79078467      -0.00195209      -0.05054746       0.02552039
H        0.20599699      -0.52237946      -0.91444432       0.14285053       0.11263493       0.39522458
H        0.76166872      -0.66284436       0.88771945       0.19484254      -0.17705131       0.32347163
N       -0.23478738       2.09041330       1.13503521       0.36150819      -0.33716247       0.60146656
O       -1.11715009       2.83987258       0.73335027       0.03075331      -0.05827889       0.63913861
O        0.09288833       1.81635081       2.30590400      -0.70203479       0.56428042      -1.54452273