11
Properties=species:S:1:pos:R:3:mp2_forces:R:3 R1=H R2=H R3=H R4=NO2 lg=F nu=Cl mp2_energy=-22926.24880330565 pbc="F F F"
C        0.72917615      -0.00708646       0.02562817       0.00596739       0.00109288       0.00625976
C        0.75495025       1.46111079      -0.02668298      -0.00440673      -0.00457567      -0.00579587
H        1.71591458       1.88568955      -0.09607404      -0.00082277       0.00190064       0.00004509
F       -1.27356015       0.26764074       0.12728061      -0.00112390      -0.00166680       0.00113491
Cl       2.72177740      -0.54354851      -0.03786165      -0.00415086       0.00094043      -0.00133035
H        0.42119070      -0.58351028      -0.88925258       0.00746854       0.00124709      -0.00297724
H        0.50920318      -0.49628278       0.94720374      -0.00813530       0.00060103      -0.00115933
H        0.23964323       1.89851199       0.82234009       0.00415888      -0.00080311       0.00078176
N        0.02197087       1.96694688      -1.20569999       0.00502077       0.00962325       0.00063825
O       -0.53608639       3.05291088      -1.06021524       0.00189070      -0.00574949      -0.00112830
O        0.11304411       1.37856543      -2.24240785      -0.00586671      -0.00261026       0.00353132
11
Properties=species:S:1:pos:R:3:mp2_forces:R:3 R1=H R2=H R3=H R4=NO2 lg=Cl nu=Cl mp2_energy=-32723.706860611775 pbc="F F F"
C        0.57721378      -0.02968723       0.08699310      -0.00075705       0.00132483      -0.00116196
C        0.70696767       1.44628634      -0.04674376      -0.00407094       0.00263081      -0.00034259
H        1.69509294       1.80172592       0.02257565       0.00089997      -0.00312662      -0.00025520
Cl      -1.67078786      -0.07585523       0.38482637       0.00084610      -0.00149788      -0.00049528
Cl       2.89054708      -0.39910770      -0.31332918      -0.00133441      -0.00174740       0.00052927
H        0.44808566      -0.58428787      -0.87304848       0.00081564       0.00203702      -0.00044505
H        0.71820748      -0.52928869       0.96604547       0.00207601       0.00319619       0.00061745
H        0.10148836       1.89444925       0.78453490       0.00103068      -0.00135984      -0.00115481
N        0.15867158       2.05397746      -1.28032915      -0.00161317      -0.00043878      -0.00064438
O       -0.22656927       3.20721786      -1.23111127       0.00152045      -0.00390317      -0.00052349
O        0.16096572       1.35114201      -2.30326001       0.00058673       0.00288484       0.00387603
11
Properties=species:S:1:pos:R:3:mp2_forces:R:3 R1=H R2=H R3=H R4=NO2 lg=Cl nu=Br mp2_energy=-90226.86838117501 pbc="F F F"
C        0.58924996      -0.01359564       0.00568299      -0.01320795       0.00153102       0.00399229
C        0.62307991       1.48999438       0.00335468       0.00227156      -0.00088887       0.00393239
H        1.61423576       1.88375077       0.12581478      -0.00081004      -0.00003632      -0.00533396
Cl      -1.68807112      -0.07657343       0.39792793       0.00182660       0.00256304      -0.00551578
Br       2.98658811      -0.45215137      -0.33657525       0.00202751       0.00014870      -0.00005957
H        0.43067112      -0.57151077      -0.83471147       0.00433823       0.00043629      -0.00058034
H        0.70536819      -0.48899029       0.97111037       0.00274692       0.00039704      -0.00067027
H       -0.00230512       1.91772892       0.73965535       0.00250714      -0.00044388       0.00099785
N        0.13285641       2.03046251      -1.29719122       0.00341392      -0.00170520       0.00014066
O       -0.15309481       3.21620173      -1.27012294      -0.00229611      -0.00509278      -0.00054180
O        0.13642690       1.35560307      -2.30004584      -0.00281777       0.00309097       0.00363854
11
Properties=species:S:1:pos:R:3:mp2_forces:R:3 R1=H R2=H R3=H R4=NO2 lg=Br nu=Cl mp2_energy=-90226.87240177633 pbc="F F F"
C        0.65369295      -0.06844801       0.01898088      -0.00378899       0.00356845       0.00417677
C        0.69020738       1.49126118      -0.00925228       0.01338335      -0.02964267       0.00334999
H        1.71258029       1.85016491       0.05611220      -0.00746946       0.01915916       0.00096137
Br      -1.79729052      -0.11668205       0.39376938      -0.00432451       0.00788765       0.00029359
Cl       2.93665688      -0.41275360      -0.23936235      -0.00045460      -0.00017434      -0.00261454
H        0.49061656      -0.58381370      -0.85052140       0.00076576       0.00160985       0.00023255
H        0.69440818      -0.55129500       0.97428062       0.00112577       0.00016850      -0.00142995
H        0.06143485       1.91919593       0.80579049       0.00176046       0.00194260      -0.00109634
N        0.12459459       2.05999923      -1.31506031      -0.00245310      -0.01566254      -0.00785441
O       -0.20608607       3.23541740      -1.23581855      -0.00245826      -0.00339234      -0.00009598
O        0.16121161       1.38830357      -2.28257520       0.00391358       0.01453567       0.00407695
11
Properties=species:S:1:pos:R:3:mp2_forces:R:3 R1=H R2=H R3=H R4=NO2 lg=Br nu=Br mp2_energy=-147730.04390931383 pbc="F F F"
C        0.60744989      -0.01973908       0.05479015       0.00941491       0.00305621       0.00044744
C        0.66204549       1.45846007      -0.01567288       0.00279948      -0.00690774       0.00010363
H        1.68755505       1.85045904       0.02477065      -0.00297901       0.00365939       0.00274023
Br      -1.83071240      -0.07906518       0.34710360      -0.00237052      -0.00121545       0.00152273
Br       3.03975694      -0.46515189      -0.21452915      -0.00223576       0.00027847      -0.00203461
H        0.47379504      -0.55418163      -0.85755934      -0.00355840       0.00033859       0.00188806
H        0.68403333      -0.52661643       1.00606214      -0.00193593       0.00014273      -0.00027197
H        0.10258117       1.95005526       0.77778392      -0.00093423      -0.00092815      -0.00194287
N        0.09023605       2.01358424      -1.28505706      -0.00278980      -0.00232845      -0.00806601
O       -0.27593794       3.18964822      -1.22540283       0.00336597      -0.00169363      -0.00086161
O        0.17752255       1.40167048      -2.32367233       0.00122329       0.00559802       0.00647498
10
Properties=species:S:1:pos:R:3:mp2_forces:R:3 R1=H R2=H R3=H R4=CN lg=Cl nu=Br mp2_energy=-87176.97690215924 pbc="F F F"
C        0.61769450      -0.03031894       0.00868903       0.00554049       0.00167166       0.01106250
C        0.58395937       1.52471410       0.03637613      -0.00568938       0.01985859      -0.02021768
H        1.53561416       1.90898690       0.33847931       0.00080433      -0.01524144       0.01182358
Cl      -1.67480641      -0.33424760       0.47228551       0.00284152      -0.00160687      -0.00093912
Br       3.02387811      -0.23635863      -0.49691239      -0.00213240       0.00003399      -0.00417959
H        0.39855347      -0.56513509      -0.87167518      -0.00074622       0.00017617       0.00052357
H        0.78811859      -0.51984040       0.92504151       0.00014470       0.00063262      -0.00042098
H       -0.21486961       1.83469276       0.69352528      -0.00024329      -0.00183156      -0.00073962
C        0.30516599       2.07047019      -1.31088597      -0.00126593      -0.00330379       0.00241327
N        0.10792762       2.49858981      -2.30879575       0.00074621      -0.00038938       0.00067408
10
Properties=species:S:1:pos:R:3:mp2_forces:R:3 R1=H R2=H R3=H R4=CN lg=Br nu=Cl mp2_energy=-87176.97652437275 pbc="F F F"
C        0.57769458      -0.01877883       0.01564801      -0.00338201       0.00795058      -0.02581288
C        0.54980676       1.46752491       0.03262684      -0.02134468       0.03388509      -0.00935967
H        1.55107927       1.86637539       0.35083563       0.00771294      -0.02651780       0.00160944
Br      -1.78996530      -0.39689479       0.47479853       0.01298209      -0.00499535       0.00945528
Cl       2.94455748      -0.18495378      -0.47754708       0.00490821      -0.00360719       0.01448512
H        0.46303101      -0.55947924      -0.86643133       0.00393685      -0.00053941      -0.00079670
H        0.83431340      -0.52735811       0.94275383      -0.00609693       0.00074619       0.00144191
H       -0.19275030       1.84375534       0.72597756       0.00660180       0.00058873       0.00460768
C        0.29827021       2.08179045      -1.29572155      -0.00602054      -0.00837984       0.00251309
N        0.09397613       2.58273495      -2.31658241       0.00070227       0.00086901       0.00185673
10
Properties=species:S:1:pos:R:3:mp2_forces:R:3 R1=H R2=H R3=H R4=CN lg=Br nu=Br mp2_energy=-144680.15013455247 pbc="F F F"
C        0.61061043       0.00764438       0.04358046       0.01926502       0.00202284       0.01065892
C        0.55777540       1.50635856       0.03017683      -0.01270005       0.02392280      -0.02362694
H        1.49477181       1.88129608       0.43960196       0.00382573      -0.01835961       0.00533846
Br      -1.80218100      -0.37127835       0.53042006       0.00505112       0.00244833      -0.00676035
Br       2.98387289      -0.21922520      -0.55591538      -0.00332202       0.00017887      -0.00063800
H        0.42530406      -0.59404763      -0.91081229       0.00078761      -0.00041524       0.00025126
H        0.81752170      -0.50805059       0.94670354      -0.00849616       0.00012801       0.00118238
H       -0.26516698       1.85109860       0.66714534       0.00493133      -0.00157302       0.00581798
C        0.38019197       2.09620458      -1.30253621      -0.00894750      -0.00890604       0.00618622
N        0.16746798       2.57660462      -2.32235732      -0.00039502       0.00055307       0.00159007
12
Properties=species:S:1:pos:R:3:mp2_forces:R:3 R1=H R2=H R3=H R4=CH3 lg=F nu=F mp2_energy=-8639.847828373431 pbc="F F F"
C        0.58495138       0.02943951       0.04970224      -0.00596566       0.00040161       0.00665624
C        0.65691566       1.49657390       0.03488305       0.00011636      -0.00130890      -0.00580613
H        1.64524895       1.79048141       0.19289130      -0.00153784      -0.00075253       0.00061559
F       -1.18083589      -0.05027183       0.62718538       0.00256022       0.00069083      -0.00039588
F        2.25786507      -0.19324261      -0.64056384       0.00098059       0.00012580       0.00111095
H        0.23694231      -0.57050832      -0.79878754      -0.00021561       0.00264624      -0.00064067
H        0.87508449      -0.52138184       0.94363320       0.00218526      -0.00060837      -0.00318757
H       -0.01886304       1.87893085       0.87251440       0.00069003       0.00045513      -0.00116873
C        0.15618119       2.01648446      -1.32934409       0.00071169      -0.00026659       0.00120566
H        0.81735911       1.61354173      -2.07006507      -0.00108516       0.00117311       0.00029275
H       -0.84612171       1.69828484      -1.50233168       0.00182468      -0.00113059      -0.00020335
H        0.21845859       3.12486988      -1.40085521      -0.00026455      -0.00142574       0.00152114
12
Properties=species:S:1:pos:R:3:mp2_forces:R:3 R1=H R2=H R3=H R4=CH3 lg=Cl nu=F mp2_energy=-18437.1530872683 pbc="F F F"
C        0.42056924       0.00803800       0.07295572      -0.01793599       0.04370679      -0.02530586
C        0.56282486       1.48512905       0.09141053      -0.00937179       0.02416822      -0.01289765
H        1.55353625       1.72054632       0.36972124       0.00186246      -0.01729126       0.00304624
Cl      -1.49964915      -0.28729889       0.84438124       0.00968716      -0.02032422       0.00848060
F        2.28363529      -0.04272983      -0.84704490       0.00418704      -0.01706552       0.01034652
H        0.23959456      -0.51742733      -0.79981984       0.00266375       0.00034853      -0.00365939
H        0.97662573      -0.57195136       0.83823300       0.00490458      -0.00415355       0.00424758
H       -0.14857122       1.96853498       0.82593800       0.00085650       0.00060583      -0.00217915
C        0.26460135       2.05583420      -1.31121435       0.00238063      -0.00332513       0.01087123
H        1.00986983       1.60539758      -1.94330023      -0.00102315      -0.00069183       0.00416971
H       -0.77706730       1.79131391      -1.61559912      -0.00096469      -0.00407068       0.00578110
H        0.34751799       3.12321557      -1.33887316       0.00275351      -0.00190719      -0.00290094
12
Properties=species:S:1:pos:R:3:mp2_forces:R:3 R1=H R2=H R3=H R4=CH3 lg=Br nu=Br mp2_energy=-143241.14333488845 pbc="F F F"
C        0.57354499       0.02668718       0.06941532       0.01568835      -0.00050280      -0.00415071
C        0.55538658       1.53961732       0.05380402      -0.00478241      -0.00244547       0.00184520
H        1.58305569       1.81737916       0.33194949       0.00112458      -0.00018867      -0.00831081
Br      -1.85068459      -0.29212687       0.64024558      -0.00830115      -0.00059982       0.00149034
Br       2.89336809      -0.37241390      -0.70341103      -0.00205979       0.00148231       0.00214461
H        0.29489989      -0.55453763      -0.76203030      -0.00142822       0.00080471       0.00134076
H        0.80032395      -0.50586399       0.97783497      -0.00759287       0.00129467       0.00128040
H       -0.11297482       1.91239192       0.79086283       0.00549973       0.00130039       0.00296574
C        0.20444066       2.09016357      -1.32655060       0.00407765      -0.00471653       0.00049510
H        0.90537066       1.68550251      -2.06402744      -0.00004116       0.00595671      -0.00062272
H       -0.79465084       1.76337465      -1.63328743       0.00325371      -0.00172462      -0.00181606
H        0.27828226       3.15759667      -1.39085432      -0.00543842      -0.00066088       0.00333816
11
Properties=species:S:1:pos:R:3:mp2_forces:R:3 R1=H R2=H R3=H R4=NH2 lg=F nu=F mp2_energy=-9075.958164717254 pbc="F F F"
C        0.60138593       0.02658206      -0.00722919      -0.00043259       0.00204945       0.00561450
C        0.69755629       1.48817638      -0.03791858       0.00085641       0.00078694      -0.01514705
H        1.80419207       1.72548568      -0.08903675      -0.00147869      -0.00069810       0.00367908
F       -1.19518492       0.05470206      -0.07092018       0.00302825      -0.00175298      -0.00738405
F        2.44866978      -0.32466703       0.09367691      -0.00373801       0.00340164       0.00046187
H        0.64652942      -0.52326911      -0.94063261       0.00273432       0.00047515       0.00146881
H        0.58197500      -0.54036565       0.87619131      -0.00084369      -0.00041198       0.00076909
H        0.34609519       1.87594344       0.85179345       0.00498835      -0.00261615       0.00274329
N        0.03666494       2.04404769      -1.23540136      -0.02155092       0.00012377       0.00798748
H       -0.09668746       3.08821093      -1.09945475       0.01480061       0.00083306      -0.00313106
H       -0.88708587       1.61992704      -1.16414081       0.00163596      -0.00219080       0.00293803
11
Properties=species:S:1:pos:R:3:mp2_forces:R:3 R1=H R2=H R3=H R4=NH2 lg=F nu=Cl mp2_energy=-18873.341947441913 pbc="F F F"
C        0.70105746       0.04145575      -0.00713624       0.00262850      -0.00120838       0.01460632
C        0.71812443       1.51829710      -0.01202038      -0.01476308       0.00149686      -0.00328302
H        1.76994895       1.92158368      -0.02713969      -0.00090299      -0.00160349      -0.00567993
F       -1.29381173       0.16701240      -0.05479678       0.00436391      -0.00333604      -0.01090419
Cl       2.84656530      -0.51034456       0.10516910       0.00250068      -0.00097517      -0.00281959
H        0.55250258      -0.45314632      -0.94106240      -0.00051281       0.00235430      -0.00040313
H        0.50770972      -0.48920954       0.93215106      -0.00331972       0.00098308       0.00021548
H        0.23459392       1.85563206       0.91338626       0.00897946       0.00175320       0.00328247
N        0.03560989       1.98318006      -1.25530271      -0.00521980      -0.00073715       0.00603241
H       -0.13643012       2.99721837      -1.13635083       0.00478720      -0.00035559      -0.00090268
H       -0.82242762       1.59044434      -1.14586630       0.00145864       0.00162837      -0.00014414
11
Properties=species:S:1:pos:R:3:mp2_forces:R:3 R1=H R2=H R3=H R4=NH2 lg=Cl nu=F mp2_energy=-18873.09664893645 pbc="F F F"
C        0.51352227      -0.05138663       0.03435684      -0.00526464       0.01893843       0.01285298
C        0.69460352       1.50541331      -0.04508979      -0.00240909      -0.01388854      -0.00116153
H        1.73063649       1.67572294      -0.04458403      -0.00207880       0.00373984       0.00130977
Cl      -1.54240826      -0.20613149       0.11449968      -0.00525182      -0.00763812      -0.00440591
F        2.64295429      -0.15714703       0.04054569      -0.00019535      -0.00317269      -0.01008379
H        0.68649683      -0.52151159      -0.91617044       0.00677209      -0.00323210       0.00312581
H        0.73849203      -0.55309430       0.91018881      -0.00263882      -0.00067473      -0.00020662
H        0.22168705       1.91081030       0.92554604       0.00577554       0.00330440       0.00059241
N        0.10111594       2.06449486      -1.24394535       0.01250212      -0.00164588      -0.00723488
H        0.22134784       3.06853896      -1.20912430      -0.00744858       0.00123354       0.00323061
H       -0.91270925       1.92798069      -1.19335316       0.00023735       0.00303585       0.00198114
11
Properties=species:S:1:pos:R:3:mp2_forces:R:3 R1=H R2=H R3=H R4=NH2 lg=Br nu=Br mp2_energy=-143677.14561414524 pbc="F F F"
C        0.62946169       0.05465386       0.01716770       0.00550706       0.00202246      -0.01033352
C        0.65805699       1.52456390       0.02453201       0.00473210      -0.00429358       0.00432025
H        1.69074522       1.86682919       0.10062521      -0.00290450       0.00493842      -0.00427324
Br      -1.90061908      -0.17922192       0.17839960      -0.00118007       0.00438739       0.00023396
Br       3.10630729      -0.45258148      -0.06618072      -0.00203241       0.00040669       0.00541928
H        0.60947807      -0.48644764      -0.91857317       0.00229156       0.00069519       0.00019052
H        0.66462851      -0.50935385       0.91532751      -0.00459314       0.00030985      -0.00076633
H        0.10100291       1.86315264       0.89302858       0.00080420      -0.00214339       0.00017880
N        0.11050061       2.01728597      -1.21874274       0.00353619      -0.01072741      -0.00561975
H        0.24382076       3.07193791      -1.22448642      -0.00526878       0.00027229       0.00197774
H       -0.83142067       1.79562480      -1.30102137      -0.00089222       0.00413208       0.00867229
11
Properties=species:S:1:pos:R:3:mp2_forces:R:3 R1=H R2=H R3=NO2 R4=H lg=Cl nu=Cl mp2_energy=-32723.70662237718 pbc="F F F"
C        0.68501875      -0.01222585       0.00102251      -0.02127536       0.01028829      -0.03602740
C        0.64441295       1.45428005      -0.03090794       0.00715093       0.00097324      -0.00832393
H        1.69611966       1.85524899      -0.10593430      -0.00037111      -0.00164743       0.00611350
Cl      -1.70708172      -0.13912037      -0.34013366       0.00181263      -0.00312155       0.01825938
Cl       2.88280395      -0.38438706       0.25844677      -0.00082717      -0.00141206       0.01505774
H        0.70611164      -0.53823619      -0.95879493       0.00667506      -0.00037980       0.00207802
H        0.48887373      -0.54248998       0.88175331       0.00708999      -0.00082407       0.00055582
H        0.07876133       1.91795748      -0.79483244      -0.00044509      -0.00039618       0.00179448
N        0.09364939       2.02713696       1.28645347       0.00411911      -0.00535476       0.00071435
O       -0.28143117       3.22809747       1.19274876       0.00029324      -0.00292935       0.00308773
O        0.18145393       1.34688176       2.29677358      -0.00422224       0.00480367      -0.00330970
11
Properties=species:S:1:pos:R:3:mp2_forces:R:3 R1=H R2=H R3=NO2 R4=H lg=Cl nu=Br mp2_energy=-90226.86796497267 pbc="F F F"
C        0.60723369      -0.01517124      -0.01047966       0.01131894      -0.00020915       0.00605585
C        0.62449767       1.47990021      -0.01048245      -0.00471212       0.01045924      -0.00919049
H        1.61154066       1.88543870      -0.18692085       0.00335558      -0.01003758       0.00616923
Cl      -1.72048380      -0.13783002      -0.35691875       0.00100845      -0.00203998      -0.00075349
Br       3.04864102      -0.35642429       0.28536135      -0.00160852       0.00060993      -0.00156796
H        0.69478703      -0.55948613      -0.98248373      -0.00589182       0.00133207      -0.00061389
H        0.45425975      -0.57473540       0.86386013      -0.00313624      -0.00054309      -0.00085653
H       -0.05279773       1.86968819      -0.75676600       0.00076167       0.00097779       0.00226599
N        0.18119185       2.03479977       1.28285382      -0.00208033       0.00050260       0.00078052
O       -0.10102287       3.24621443       1.24731841      -0.00306399      -0.00436038       0.00014417
O        0.12460793       1.34612409       2.32444751       0.00404839       0.00330855      -0.00243339
11
Properties=species:S:1:pos:R:3:mp2_forces:R:3 R1=H R2=H R3=NO2 R4=H lg=Br nu=Cl mp2_energy=-90226.8722054339 pbc="F F F"
C        0.67761971      -0.03610314      -0.00450318       0.02708514       0.00771472      -0.02445743
C        0.68528625       1.47131598       0.00862055       0.00231164      -0.00544915      -0.00285164
H        1.70223670       1.85244560      -0.00405133      -0.00274937       0.00439619      -0.00245415
Br      -1.76534602      -0.11573790      -0.32350060      -0.00570570      -0.00033599       0.01087437
Cl       2.90501303      -0.42887098       0.18791710      -0.00579889      -0.00150007       0.01387658
H        0.69376278      -0.54801849      -0.97717765      -0.00458433       0.00084751       0.00023569
H        0.47694076      -0.57998838       0.91080457      -0.00727721      -0.00023883      -0.00154422
H        0.12585325       1.89650964      -0.81782964      -0.00466721      -0.00249256       0.00363317
N        0.11025889       2.07898983       1.23746451       0.00459848      -0.00444656       0.00556316
O       -0.30943239       3.19025199       1.19046570       0.00172452      -0.00340857       0.00122176
O        0.20334992       1.42461524       2.32032540      -0.00493709       0.00491332      -0.00409729
11
Properties=species:S:1:pos:R:3:mp2_forces:R:3 R1=H R2=H R3=NO2 R4=H lg=Br nu=Br mp2_energy=-147730.04392480387 pbc="F F F"
C        0.59539892       0.01187667      -0.01868480      -0.01189561       0.00355901       0.00817731
C        0.64012843       1.50934603       0.01651817       0.00936285      -0.01245370      -0.00920011
H        1.63932863       1.86081112      -0.04261378      -0.00400990       0.00645235       0.00315946
Br      -1.82345943      -0.15696849      -0.36157123       0.00463647       0.00288537       0.00338478
Br       3.07974663      -0.45729411       0.24848224       0.00188749       0.00032112      -0.00461784
H        0.70330044      -0.51098433      -0.94276266       0.00398055       0.00095285       0.00099390
H        0.49635682      -0.57961392       0.85462389       0.00007080       0.00081517      -0.00070593
H        0.08710715       1.94156483      -0.77227305      -0.00008170      -0.00065041       0.00041190
N        0.09486522       2.06073622       1.26521580      -0.00215906       0.00969928       0.00099315
O       -0.28853915       3.21353929       1.21946241       0.00451804      -0.00791107       0.00022542
O        0.18272981       1.39157101       2.30443284      -0.00630989      -0.00366998      -0.00282204
13
Properties=species:S:1:pos:R:3:mp2_forces:R:3 R1=H R2=H R3=NO2 R4=NO2 lg=F nu=F mp2_energy=-18684.70162290472 pbc="F F F"
C        0.58150216      -0.09151981      -0.02728597      -0.00757308       0.00213246       0.01085175
C        0.65635259       1.38134549       0.10366635       0.00065270      -0.00707674       0.00126717
H        1.69961559       1.64453527       0.47515695      -0.00046609      -0.00060650      -0.00149935
F       -1.01360954      -0.16758556       0.89319155       0.00535558       0.00110487       0.00197869
F        2.06184426      -0.03542721      -0.90157825      -0.00147128       0.00211736      -0.00205851
H        0.03235644      -0.52028066      -0.86837281       0.00423846       0.00394143      -0.00360306
H        0.99529789      -0.72416444       0.74890070      -0.00274012      -0.00194339      -0.00260657
N       -0.28245273       2.02239906       1.15951696       0.00122106      -0.00011956       0.00237372
O       -1.29132783       2.58889382       0.68669545       0.00139792      -0.00397526       0.00054842
O        0.12465549       1.94365701       2.27976366      -0.00200377       0.00306693      -0.00468675
N        0.45190696       2.07745836      -1.17038394      -0.00162944       0.00246530      -0.00638275
O        1.03713855       3.15912649      -1.30400523      -0.00248141      -0.00320119       0.00165800
O       -0.28127778       1.55535142      -2.01986861       0.00549947       0.00209429       0.00215923
13
Properties=species:S:1:pos:R:3:mp2_forces:R:3 R1=H R2=H R3=NO2 R4=NO2 lg=Cl nu=F mp2_energy=-28481.724356042163 pbc="F F F"
C        0.46987852      -0.11273307       0.00429750      -0.00620921      -0.00320658       0.00947426
C        0.68513188       1.38871002       0.13791543      -0.00163392       0.00156488      -0.00108836
H        1.67774112       1.52765671       0.50633978       0.00012214       0.00003600      -0.00351026
Cl      -1.40234298      -0.52895868       1.01173796       0.00361602       0.00234791      -0.00321325
F        2.10687932       0.05422072      -0.96364114      -0.00104326       0.00025925       0.00045476
H        0.13039762      -0.45100774      -0.97008201       0.00278960       0.00288116      -0.00112709
H        1.05444391      -0.77002261       0.60512822       0.00174575       0.00220936      -0.00132541
N       -0.26398710       2.10614370       1.10281474       0.00021743      -0.00353220       0.00109914
O       -1.20136227       2.70985113       0.63949746       0.00385504       0.00096819       0.00153876
O        0.06355626       2.00912446       2.25366818      -0.00324655      -0.00169382      -0.00328424
N        0.56564118       2.05835375      -1.16368675       0.00165907       0.00145791      -0.00129649
O        1.21293278       3.17849106      -1.19815350      -0.00305833      -0.00450432      -0.00070097
O       -0.16403303       1.60751000      -2.02595303       0.00118623       0.00121225       0.00297914
13
Properties=species:S:1:pos:R:3:mp2_forces:R:3 R1=H R2=H R3=NO2 R4=NO2 lg=Cl nu=Cl mp2_energy=-38278.94536089839 pbc="F F F"
C        0.55580350      -0.06939669      -0.00580292       0.00523069      -0.00086992      -0.00805583
C        0.67877091       1.38950572      -0.11941352      -0.00217754       0.00454062       0.00990136
H        1.69618502       1.71632803      -0.43789390       0.00019274      -0.00462662       0.00130728
Cl      -1.65049955      -0.33793683      -0.56025992      -0.00046595       0.00071409       0.00175081
Cl       2.67335071      -0.23408224       0.75464109      -0.00105670       0.00116684       0.00074196
H        0.83327776      -0.68213990      -0.84714773      -0.00439350       0.00138407      -0.00095257
H        0.24555887      -0.49268324       0.92221957       0.00178296       0.00002385       0.00013648
N        0.41446924       2.12247720       1.17952465      -0.00257103       0.00220167       0.00010314
O        0.90353168       3.22045549       1.23922004      -0.00353634      -0.00346699      -0.00078510
O       -0.18434698       1.55676960       2.04247173       0.00375723       0.00152037      -0.00239457
N       -0.26585482       2.00009621      -1.11390126       0.00148909       0.00043732      -0.00498859
O       -1.10859444       2.81050735      -0.79063681       0.00350123      -0.00250695      -0.00111071
O        0.02409081       1.74086697      -2.27018372      -0.00175287      -0.00051835       0.00434635
13
Properties=species:S:1:pos:R:3:mp2_forces:R:3 R1=H R2=H R3=NO2 R4=NO2 lg=Cl nu=Br mp2_energy=-95782.095164322 pbc="F F F"
C        0.56732435      -0.09463756       0.01056219       0.00537296       0.00713685      -0.00082283
C        0.66593443       1.46279763       0.09726825      -0.00045600       0.00447210      -0.00681583
H        1.65068891       1.76407105       0.43651760       0.00088611      -0.00621713      -0.00004426
Cl      -1.70794083      -0.35017374       0.61633152       0.00132771      -0.00425663       0.00379985
Br       2.80005391      -0.30801370      -0.79078467      -0.00003534      -0.00183363       0.00311448
H        0.20599699      -0.52237946      -0.91444432      -0.00030256       0.00148942      -0.00081231
H        0.76166872      -0.66284436       0.88771945      -0.00552764       0.00005180      -0.00070458
N       -0.23478738       2.09041330       1.13503521      -0.00219767       0.00384406       0.00307486
O       -1.11715009       2.83987258       0.73335027       0.00334936      -0.00385469       0.00147998
O        0.09288833       1.81635081       2.30590400      -0.00099540      -0.00028292      -0.00565442