11
Properties=species:S:1:pos:R:3:mp2_forces:R:3 R1=H R2=H R3=H R4=NO2 lg=F nu=Cl rxn-id=0 mp2_energy=-22926.327314487862 pbc="F F F"
C        0.79464996      -0.00132409      -0.09061030       0.52363446       3.02513714      -0.11592912
C        0.46465103       1.45755167      -0.10875880      -0.35553957      -3.20590805       0.79493953
H        0.83388883       2.08615085       0.69708679       0.12530759       0.18343845      -0.44927569
F       -1.95954769       0.48201318       0.82965301       0.61215367       0.42054168      -0.24624753
Cl       2.69471438      -0.28214969      -0.44765396      -0.61003588      -0.33978077       0.05026002
H        0.23282810      -0.52010125      -0.84392452       0.16042165      -0.45430649      -0.31578987
H        0.66784240      -0.34530380       0.91095352       0.06726147      -0.73385175       0.54814328
H       -1.16704203       0.94998156       0.46948623      -0.58492720      -0.35426235       0.23407584
N        0.29316547       2.04294878      -1.35522319       0.19821034      -8.63047130       0.05383978
O        0.26862882       3.17365832      -1.40662674      -0.15965820      11.05513724      -0.52394396
O        0.11182741       1.34462446      -2.37653874       0.02317167      -0.96567379      -0.03007230
11
Properties=species:S:1:pos:R:3:mp2_forces:R:3 R1=H R2=H R3=H R4=NO2 lg=Cl nu=Cl rxn-id=1 mp2_energy=-32722.00768985848 pbc="F F F"
C        0.56970848       0.08655156       0.03311117      -0.39114589     -10.41988009       0.67218012
C        0.14484313       1.34599536       0.05799858       0.13441581       7.33222561      -1.07448195
H        0.74483092       1.96818588       0.72647096       0.03249261       0.47978344      -0.41130732
Cl      -2.63489884       0.03961352       0.53700784      -0.35320130      -0.19745426       0.05311472
Cl       2.26276007      -0.26317294      -0.22353118       1.86599161       0.37013750      -0.16756465
H        0.08083560      -0.55337321      -0.76608693       0.11450553       1.05699520       0.92365603
H        0.31834679      -0.54772876       1.00815132       0.09858881       1.83792632      -1.91588355
H       -0.85060732       1.44166400       0.32119115      -2.18930262      -0.10008544       0.59344976
N        0.21321292       2.04982896      -1.43522024      -2.59848876       8.53483820      17.55741232
O        0.18860450       3.26033877      -1.31633476      -0.62879055       1.53769710      -0.93867703
O        0.48759814       1.42111144      -2.24908140       3.91493475     -10.43218357     -15.29189846
11
Properties=species:S:1:pos:R:3:mp2_forces:R:3 R1=H R2=H R3=H R4=NO2 lg=Cl nu=Br rxn-id=2 mp2_energy=-90226.90701852676 pbc="F F F"
C        0.60369865       0.00543961       0.07966849       1.26807167      -0.16385603      -3.71929049
C        0.19914807       1.38437850      -0.01028521      -1.92608598       0.26232912       0.40721370
H        0.76322581       2.01917797       0.60028085       0.50995151       1.21541214       1.11030539
Cl      -2.64312575      -0.10833568       0.59011439       0.04457670       0.02380244       0.02503807
Br       2.54754723      -0.26020757      -0.18481534      -0.17424459       0.09803373      -0.16423397
H        0.05081176      -0.51252802      -0.68068027       0.13129586      -0.76097060      -0.33486119
H        0.43786927      -0.41088966       0.96891118      -1.00181992      -1.47098893       3.70750531
H       -0.90811837       1.38747605       0.18829607       0.65117349      -0.10963823       0.56576802
N        0.25025700       1.95179692      -1.31458162       0.26664396       3.30564836      -4.99312812
O        0.26837134       3.25988315      -1.35123012       0.02927333      -4.13603798       0.07696906
O        0.18525083       1.23852674      -2.39058764       0.20116398       1.73626598       3.31871424
11
Properties=species:S:1:pos:R:3:mp2_forces:R:3 R1=H R2=H R3=H R4=NO2 lg=Br nu=Cl rxn-id=5 mp2_energy=-90227.61586324431 pbc="F F F"
C        0.63773278      -0.00683497       0.01294229      -0.59260138      -2.16449585       0.54246494
C        0.16116188       1.34608945       0.00536039       0.27238485       2.44127881      -0.04583079
H        0.74562456       2.04079893       0.61810270      -0.52366889      -0.30547828       0.47353114
Br      -2.85571392      -0.13441732       0.62722269      -0.00114427      -0.02065299       0.02096652
Cl       2.34813562      -0.25061146      -0.18438321       1.45346948       0.24424163       0.02309455
H        0.19177811      -0.53641054      -0.78837990      -0.67720410      -0.51620989      -0.74266988
H        0.31965295      -0.51007191       0.91771671      -0.07241136       0.06304846       0.25490255
H       -0.91227416       1.37248830       0.14973419      -0.41687474      -0.21697163       0.74960859
N        0.32302042       1.97722967      -1.30757249       1.45551410       1.24893662      -0.94188728
O        0.52193537       3.19730423      -1.31506604      -0.43217444       0.00100195       0.23239594
O        0.36619475       1.30051494      -2.31991395      -0.46528929      -0.77469883      -0.56657626
11
Properties=species:S:1:pos:R:3:mp2_forces:R:3 R1=H R2=H R3=H R4=NO2 lg=Br nu=Br rxn-id=6 mp2_energy=-147729.32609796076 pbc="F F F"
C        0.53393599       0.03339886       0.00931590       2.64620765      -3.32916540       1.14717965
C        0.18325729       1.37432529       0.02431959      -4.78007426       1.97276717       0.82753678
H        0.66703872       1.98008725       0.72069689       0.78124106       1.10408728       1.26763398
Br      -2.79737170      -0.22303975       0.52504663       0.06998575       0.11268572       0.03392980
Br       2.52132571      -0.23216097      -0.17474475      -0.26302946       0.09527264      -0.24680470
H        0.05400279      -0.51666483      -0.73640196      -0.58477470      -0.92257341      -1.22543358
H        0.39560685      -0.42833167       0.96512377      -0.59721439      -0.17045377       0.44800115
H       -1.01283890       1.35882124       0.24868840       2.07893958      -0.18880961      -0.11858578
N        0.29029064       1.99876564      -1.21188996       2.53054423       2.85925515     -10.37658071
O        0.41315155       3.29393802      -1.35866046      -0.77685471      -3.24674762       2.01222323
O        0.42049643       1.32531076      -2.39715473      -1.10497078       1.71368185       6.23090019
10
Properties=species:S:1:pos:R:3:mp2_forces:R:3 R1=H R2=H R3=H R4=CN lg=Cl nu=Br rxn-id=11 mp2_energy=-87177.18951191589 pbc="F F F"
C        0.63313326       0.01605671       0.02272004      -1.88989219      -2.11586455       1.88885765
C        0.17947088       1.39396443       0.12805249      -3.34570534       2.09302286      -3.74172126
H        0.75504891       1.97798426       0.75446751       1.22786133       1.11945856       1.88233509
Cl      -2.60656382      -0.43604509       0.67073195       0.03435364       0.02300103       0.04132335
Br       2.43869096      -0.20416109      -0.31309745       2.13409753      -0.12060307      -0.44104837
H        0.06307467      -0.62337234      -0.64601287      -0.14790251       0.39876380      -0.20772566
H        0.40317922      -0.38750150       1.02857960       0.30274079      -0.19170924      -0.52034973
H       -0.94599930       1.41894565       0.40655494       1.79130532      -0.33511558      -0.20098207
C        0.27691454       2.12603609      -1.22689396       0.18660063       0.29912370      -1.69963268
N        0.38033760       2.61499288      -2.32870246      -0.29345921      -1.17007751       2.99894369
10
Properties=species:S:1:pos:R:3:mp2_forces:R:3 R1=H R2=H R3=H R4=CN lg=Br nu=Cl rxn-id=12 mp2_energy=-87177.22666144717 pbc="F F F"
C        0.55803964      -0.05100902       0.09398792       1.30492065       2.72456511      -5.10185442
C        0.15192213       1.47186222       0.00179568      -1.72982055      -2.52963293       1.17747335
H        0.70698060       1.93105977       0.82662656      -0.04550492       0.75728373      -0.64318486
Br      -2.79318262      -0.48307573       0.53247580       0.06191911       0.02642102       0.04455091
Cl       2.34637777      -0.16484542      -0.31549666      -0.00669722      -0.11488040      -0.06427711
H        0.03901392      -0.60354789      -0.69290402      -0.04665043      -0.14444015       0.61819722
H        0.53027007      -0.44375198       1.01998166      -0.93623555      -1.12781154       3.18771661
H       -0.91721997       1.30401490       0.33832477       0.65788217       0.79793218      -0.38825113
C        0.19946546       2.14007201      -1.31502610      -0.56474205      -4.68252871       7.82398861
N        0.44374550       2.75880196      -2.20654360       1.30492875       4.29309170      -6.65435918
10
Properties=species:S:1:pos:R:3:mp2_forces:R:3 R1=H R2=H R3=H R4=CN lg=Br nu=Br rxn-id=13 mp2_energy=-144680.24340160622 pbc="F F F"
C        0.54967389       0.04366661       0.05094717       0.89519261      -3.97783677      -0.54896796
C        0.11888127       1.39347614       0.06466754       0.29945328       4.81718025       1.41304568
H        0.63737270       2.05853458       0.84710061      -0.71791284      -1.19020972      -0.60162714
Br      -2.65328591      -0.43228739       0.76458948      -0.09615314      -0.02106736       0.06110864
Br       2.52351151      -0.24928799      -0.42521772      -1.00050037       0.35216357       0.37264438
H       -0.00617564      -0.50108235      -0.74464034       0.52423703       0.10575300       0.75210663
H        0.37902654      -0.44621236       1.02912296       0.18654840       0.18797895      -0.70873735
H       -0.96229845       1.37871280       0.29748536       0.13758452      -0.11883899       0.02198027
C        0.32605024       2.14793083      -1.16041804      -0.12813752       2.71865678      -7.21376981
N        0.37452713       2.69950156      -2.30392163      -0.10031199      -2.87377972       6.45221666
12
Properties=species:S:1:pos:R:3:mp2_forces:R:3 R1=H R2=H R3=H R4=CH3 lg=F nu=F rxn-id=15 mp2_energy=-8639.634394076777 pbc="F F F"
C        0.57389567       0.06085700       0.02530204       2.29756278      -0.51891963       2.90931098
C        0.16265944       1.49535602       0.06089170       1.66633791      -1.50915856       5.50946516
H        0.95181605       2.03696260       0.66690998      -0.59923281      -0.42451056      -0.35463418
F       -2.01957758      -0.06939881       0.84482894       0.20394704       0.15166000      -0.06833223
F        1.85428683      -0.14313528      -0.55330163       0.75129696       0.35863344      -0.06484840
H        0.00004850      -0.55943901      -0.50959272      -2.99692880      -1.64490849      -2.39799760
H        0.57078307      -0.52665681       1.01913084       0.17445521       1.75012506      -1.02718927
H       -0.74140462       1.31722781       0.71464037       0.05481844       0.57428250      -0.79623354
C       -0.03020719       2.11118901      -1.18855098      -3.37176796      -0.06098406      -5.50273977
H        0.72750639       1.88365200      -2.00626942      -0.53803484       0.28763737       1.15411441
H       -1.06316647       1.58777481      -1.58851573       2.29218719       1.53670884       0.57654364
H       -0.20292398       3.20642374      -1.16954785       0.06535889      -0.50056591       0.06254079
12
Properties=species:S:1:pos:R:3:mp2_forces:R:3 R1=H R2=H R3=H R4=CH3 lg=Cl nu=F rxn-id=17 mp2_energy=-18438.457207419866 pbc="F F F"
C        0.43216551      -0.05153984       0.05187096      -0.79010974       1.11569919       1.71848039
C       -0.01893804       1.45933008       0.24360527       0.84387306      -0.87015079       1.32103935
H        0.74324177       2.00851082       0.93689498      -1.20909433      -0.97280964      -1.30810239
Cl      -2.82584039      -0.54040784       1.41898225       0.03455590      -0.00564357      -0.03784346
F        1.69504115       0.00656769      -0.56296362      -0.14405189      -0.63641364      -0.17887425
H       -0.34006043      -0.57736984      -0.57062146       1.01176043       0.32181102       0.37760978
H        0.53630511      -0.61362212       1.07742635      -0.22788106       1.18115886      -2.03763643
H       -0.96855987       1.40160745       0.75435185      -0.29890151      -0.06848904       0.52616250
C       -0.22894880       2.18428112      -1.06660943       4.21702452      -0.47370547      -0.69332174
H        0.76437991       2.06081293      -1.66771050      -1.59242095       0.58470097       0.85176414
H       -0.94561339       1.76194715      -1.68728595      -1.74693622      -1.11848094      -0.89352413
H       -0.44496708       3.22455622      -0.98644952      -0.09781821       0.94232306       0.35424623
12
Properties=species:S:1:pos:R:3:mp2_forces:R:3 R1=H R2=H R3=H R4=CH3 lg=Br nu=Br rxn-id=18 mp2_energy=-143240.78393351444 pbc="F F F"
C        0.60433422       0.03641817       0.03134956      -3.93896457      -1.42606861       1.32806873
C        0.17121012       1.46163859       0.04192767       3.26010100       0.08092203       1.49007939
H        0.83209414       1.98527043       0.72165991       0.87530253       0.48154002      -0.05648605
Br      -2.71091293      -0.27118345       0.80099321      -0.17240083      -0.09946285       0.02380500
Br       2.31421608      -0.18973329      -0.53625931       2.86311007      -0.62165549      -1.03478396
H       -0.14230005      -0.57362949      -0.51117921       0.62488408       0.37900914      -0.59009958
H        0.43031592      -0.46215768       1.01471938       0.63407020       0.85875852      -0.28173751
H       -0.67131910       1.50048069       0.57435896      -3.89296010      -0.27017809       1.91118330
C       -0.02018484       2.12690627      -1.22410055       2.85057838      -1.27276692      -0.97361446
H        0.82287510       1.98148378      -1.87990876       0.47518751      -0.02106575      -0.46549714
H       -0.82722978       1.70859727      -1.65230419      -3.06224803      -1.64809458      -1.93726756
H       -0.20275678       3.11918403      -1.19044784      -0.51666022       3.55906256       0.58634983
11
Properties=species:S:1:pos:R:3:mp2_forces:R:3 R1=H R2=H R3=H R4=NH2 lg=F nu=F rxn-id=20 mp2_energy=-9076.28581602803 pbc="F F F"
C        0.66342300      -0.02158809       0.01430704      -0.53917837       3.36587266       0.06908987
C        0.29874135       1.59109767       0.00842721       1.66338722      -4.53710372      -1.23943130
H        1.31335712       1.94777351      -0.13751885       0.01290300       1.05383332       0.22517117
F       -2.07761766       0.01125108      -0.02215170       0.06882155      -0.10930915       0.01392851
F        2.08506759      -0.16903239       0.10209930      -1.11323759      -0.39749945       0.30828612
H        0.27211561      -0.41243801      -0.88885659       0.21507983      -0.55281192      -1.11654806
H        0.04683272      -0.41296498       0.79877256       0.56312632      -0.87176855       0.83276457
H       -0.13007384       1.70265572       0.95878779      -0.50126267       0.98571408       1.66168749
N       -0.56674288       1.80180491      -1.09893513       0.53213961       3.66666827      -1.34855193
H       -0.82002374       2.85079962      -1.08291269      -0.04453415      -2.38276696      -0.17834723
H       -1.36179684       1.18104006      -0.97135844      -0.85724475      -0.22082858       0.77195080
11
Properties=species:S:1:pos:R:3:mp2_forces:R:3 R1=H R2=H R3=H R4=NH2 lg=F nu=Cl rxn-id=21 mp2_energy=-18871.76479585278 pbc="F F F"
C        0.71679969       0.09413481      -0.01001297      -0.89686727      -0.81309473      -1.17321056
C        0.54263193       1.67674695      -0.01411830     -10.42573924      -9.95024219      -1.34370004
H        1.37209221       1.97607226      -0.10845917      11.68131943       5.32573207      -1.63060007
F       -1.96585652       0.16018416      -0.04215657      -0.09825056      -0.13429275       0.15627745
Cl       2.42571379      -0.41953268       0.08089344       1.07176743      -0.06688767       0.21465811
H        0.32013202      -0.43424590      -0.94856653       0.50348669       1.48553115       1.32107264
H        0.20439863      -0.41602015       0.78787937      -0.23808763       0.22089638       0.36630994
H        0.07131972       1.83954839       0.86119451      -1.32564718       1.18425804       3.46393440
N       -0.36902435       1.80590316      -1.12180427       2.61956570       2.58168722      -1.49645001
H       -0.52727277       2.78563245      -1.03267964      -1.37249440       0.97043579      -0.81409001
H       -1.16918280       1.24643324      -0.91262220      -1.51905298      -0.80402331       0.93579815
11
Properties=species:S:1:pos:R:3:mp2_forces:R:3 R1=H R2=H R3=H R4=NH2 lg=Cl nu=F rxn-id=23 mp2_energy=-18874.442282490283 pbc="F F F"
C        0.64531992       0.01039566      -0.05096891      -2.32742181       0.32348024       2.19366044
C        0.07855702       1.40432141       0.05634777       0.44337956       3.30518970       1.48115460
H        0.96492799       2.12942495       0.29059713      -1.14472265      -1.30603489      -0.43335787
Cl      -2.90988945      -0.11467624       0.01243757      -0.03306857      -0.05247591      -0.04880111
F        1.99285744       0.00627259      -0.07703292       1.98674925       0.04791301      -1.03296810
H        0.13465768      -0.45925942      -0.86602235       0.41141980      -0.55024073      -0.91329404
H        0.40999766      -0.54432344       0.84521177      -0.51875306      -0.31329707       0.32622931
H       -0.67941308       1.67989586       0.89726636       1.25744665      -1.52856049      -0.99806385
N       -0.48504871       1.83462143      -1.21270868       0.93014018      -4.45571357      -1.00021852
H       -0.72627726       2.73466322      -1.13567492      -1.21934100       4.31952407       0.26627071
H       -1.35005154       1.29706900      -1.33063147       0.21417165       0.21021564       0.15938842
11
Properties=species:S:1:pos:R:3:mp2_forces:R:3 R1=H R2=H R3=H R4=NH2 lg=Br nu=Br rxn-id=25 mp2_energy=-143677.09006176435 pbc="F F F"
C        0.60978319       0.00809413       0.12479902       0.42508753       0.92978331      -4.66670196
C        0.29857905       1.47023993       0.07032634      -1.40196090       1.98008529       1.72201944
H        1.09462026       2.12438885       0.46642625       0.26874808      -0.52965541      -0.39433665
Br      -2.78540250      -0.04156009       0.02309302      -0.08012221       0.02450193      -0.05802178
Br       2.49618007      -0.13336657      -0.19397244       1.78339960      -0.51392330      -0.40809189
H        0.14961628      -0.51669216      -0.76270028       0.14748324       0.49977611       1.41509683
H        0.52013553      -0.49569930       0.99941317      -1.12120867      -1.20603689       2.71867356
H       -0.49470261       1.62907146       0.83094549      -0.13705996      -0.17500903      -0.47899457
N       -0.09555588       1.94511660      -1.26654711      -4.27341816      -0.42382252      -0.42849011
H       -0.36818805       2.98191523      -1.24961420       0.87408877      -1.83528119       0.42520675
H       -1.16862441       1.47605042      -1.35362435       3.51496270       1.24958170       0.15364038
11
Properties=species:S:1:pos:R:3:mp2_forces:R:3 R1=H R2=H R3=NO2 R4=H lg=Cl nu=Cl rxn-id=26 mp2_energy=-32723.940254444486 pbc="F F F"
C        0.64366295      -0.05019410      -0.01343276      -3.36530230      -0.19680683      -1.06178282
C        0.10303507       1.33684413      -0.11389009       4.71565941       2.95311708       2.60326893
H        0.83191195       1.99760316      -0.69515771      -1.46959846      -0.74026010       0.30377742
Cl      -2.71096227      -0.10665321      -0.54464864      -0.07327774      -0.07300256      -0.06342649
Cl       2.32977079      -0.24174464       0.21316166       1.54935569       0.14313686      -0.04352105
H        0.26198914      -0.41524004      -1.01066872       0.72564585      -0.56636133       1.12629755
H        0.11839507      -0.53490321       0.81464977       0.01088211      -0.22956143      -0.44799788
H       -0.92067889       1.40445896      -0.31101596      -1.66372235      -0.11149713      -0.61105790
N        0.27420056       2.07512662       1.34950808      -0.51852110       2.18211535      -0.78011059
O        0.30346681       3.33980448       1.40984385       0.01815913      -2.18337179      -1.16912366
O        0.29288619       1.40879825       2.36731376       0.07071975      -1.17750812       0.14367650
11
Properties=species:S:1:pos:R:3:mp2_forces:R:3 R1=H R2=H R3=NO2 R4=H lg=Cl nu=Br rxn-id=27 mp2_energy=-90226.32201675526 pbc="F F F"
C        0.57297438      -0.04582560      -0.06466713      -0.61417264      -0.63625322       2.05472272
C        0.10820714       1.32509366       0.01438095       1.03473585       4.49326880      -3.73542410
H        0.71457080       2.00931185      -0.79478712      -1.42449592      -1.46856376       2.00492578
Cl      -2.72076528      -0.25530008      -0.65118326       0.01033456      -0.01051535      -0.03858455
Br       2.39979426      -0.18328613       0.22440979       2.74352641      -0.08003449       0.28736096
H        0.40445676      -0.51416358      -0.98552143      -0.87923548      -0.33233317      -1.33891610
H        0.15766613      -0.61512403       0.74502994      -0.68764537      -0.39259969       0.00614146
H       -0.91877994       1.41669160      -0.26996423      -0.94298548      -0.40512349      -0.32647572
N        0.17752850       2.10438189       1.30006148       1.23383206     -12.25297911      -1.68583905
O        0.18731219       3.21994328       1.28681851      -0.27012552      10.63369290       0.48254210
O        0.28751000       1.30674331       2.21864946      -0.20376846       0.45144058       2.28954650
11
Properties=species:S:1:pos:R:3:mp2_forces:R:3 R1=H R2=H R3=NO2 R4=H lg=Br nu=Cl rxn-id=29 mp2_energy=-90225.8932267716 pbc="F F F"
C        0.63511573      -0.09652235      -0.04567975      -0.63918792       2.29584823      -1.26338099
C        0.25844748       1.38596910       0.07612786      -4.04280260      -1.18589932      -1.95669445
H        0.59084659       1.99188953      -0.79631628       0.64764829       0.08310268       1.32528216
Br      -2.75733100      -0.25289473      -0.50343252      -0.11218386      -0.06027371      -0.04122021
Cl       2.38207559      -0.15365999       0.04942233       1.33597228      -0.69132098       0.17881958
H        0.29208171      -0.48444846      -1.03964184       0.22105265       0.32540801       1.11187216
H        0.15130566      -0.58247001       0.75650846      -0.23260687      -1.10902537       0.80677491
H       -0.90735880       1.35306358      -0.15222445       1.95740609      -0.02251648       0.79481213
N        0.33699451       2.01763873       1.49992044       0.61556068       6.24995022     -17.48290999
O        0.41245724       3.20047699       1.33952208      -0.10535331       3.56608661       2.00972058
O        0.38268090       1.33857815       2.33011269       0.35449458      -9.45135989      14.51692413
11
Properties=species:S:1:pos:R:3:mp2_forces:R:3 R1=H R2=H R3=NO2 R4=H lg=Br nu=Br rxn-id=30 mp2_energy=-147730.05264352734 pbc="F F F"
C        0.64839193      -0.08635161       0.00913099      -2.90621892       0.26742565      -1.14193107
C        0.15149460       1.38821727      -0.05072192       3.41557576      -1.47349225       3.38704734
H        0.63713286       2.04978088      -0.69892678       1.04117540       0.56981023      -1.45179663
Br      -2.85977480      -0.28497227      -0.46575139       0.07066749       0.00387823      -0.04756645
Br       2.49980905      -0.21670209       0.26250460       1.42445382      -0.10383812       0.06854382
H        0.34148283      -0.50307783      -1.00043452       0.53645658       0.22336707       1.23805473
H        0.11652419      -0.69825775       0.79749489       0.51889433       1.09350536      -0.94575333
H       -0.85266665       1.41874885      -0.18924640      -3.41167394      -0.16944387      -0.37363598
N        0.39118861       2.09231752       1.29943290      -1.71971001      -2.86513215       3.87681273
O        0.28391915       3.32939114       1.31364261       0.59538271      -0.73639171       0.00048328
O        0.38556990       1.33680422       2.39503336       0.43499677       3.19031155      -4.61025845
13
Properties=species:S:1:pos:R:3:mp2_forces:R:3 R1=H R2=H R3=NO2 R4=NO2 lg=F nu=F rxn-id=32 mp2_energy=-18684.0437167239 pbc="F F F"
C        0.59024453      -0.11972219       0.02926890       0.05908173       3.28735588      -2.49031678
C        0.39153816       1.44409179       0.29158585       2.04616094      -3.11261512       1.91897567
H        1.38511798       1.89076295       0.58605088      -1.29499138      -0.55619090       0.39667329
F       -1.55810332      -0.33670852       1.08160693       0.29297641       0.39605700      -0.14907017
F        1.77745352      -0.17899754      -0.78709685      -0.39742699       0.08493894       0.47906800
H       -0.22854792      -0.53174590      -0.52055018      -0.32679575      -0.02061765      -0.00224117
H        0.77115327      -0.58229606       0.91652185       0.45532138      -1.35461495       2.47198653
N       -0.67586875       1.75949394       1.26988909       0.78670390       1.57416012       4.30114059
O       -1.63333594       2.47717888       0.89326563       1.16016478      -1.48348807       0.64203897
O       -0.24158542       1.66817129       2.49789594      -1.73490575       0.05957386      -4.07409700
N        0.08837078       2.12326351      -0.87223553       0.31267622       5.95391590      -4.52607294
O        0.46334095       3.34634398      -1.04532899      -0.08836756      -2.84967675       1.92884954
O       -0.53999262       1.61210984      -1.77092198      -1.27059793      -1.97879828      -0.89693452
13
Properties=species:S:1:pos:R:3:mp2_forces:R:3 R1=H R2=H R3=NO2 R4=NO2 lg=Cl nu=F rxn-id=33 mp2_energy=-28481.784525750336 pbc="F F F"
C        0.44862817      -0.08077759      -0.02976883      -2.56296669       1.25085921       2.10832114
C        0.39394582       1.43786845       0.37734378      -1.73959700      -1.76276491      -3.68767350
H        1.32242529       1.69343797       0.78109428       1.45272233       0.72194340       0.46984287
Cl      -2.12973968      -1.08197396       1.31061468      -0.11611665      -0.07035968       0.03766655
F        1.66306930      -0.22476901      -0.55266929       2.28333175      -0.12589986      -2.31830779
H       -0.43983958      -0.41919420      -0.64112095       1.38729263       0.43082127       0.58301618
H        0.52882338      -0.60180010       0.89394855      -0.94319864      -0.73935580       0.76361591
N       -0.67221793       1.89576860       1.28215286      -2.47428502       0.61771769      -6.60493416
O       -1.67058074       2.36851990       0.71159193       0.81768846      -0.10950562       0.97295417
O       -0.50017707       1.69517395       2.40411736       0.89309832      -0.66593549       6.21643698
N        0.18252155       2.21854447      -0.96307278       3.32204385       4.71194582       3.42048386
O        0.75566438       3.41502739      -0.78788139      -2.58528777      -4.57791567      -1.85912197
O       -0.44962594       1.78816938      -1.90513282       0.26527442       0.31844962      -0.10230024
13
Properties=species:S:1:pos:R:3:mp2_forces:R:3 R1=H R2=H R3=NO2 R4=NO2 lg=Cl nu=Cl rxn-id=34 mp2_energy=-38277.99309219143 pbc="F F F"
C        0.50359851      -0.02606968       0.03241204       3.26595074       0.80059379      -2.58192831
C        0.48157382       1.42293748      -0.18543904       2.64405095       4.01077290      -0.89279300
H        1.48152518       1.80725679      -0.69836864      -2.05190413      -0.75003077       1.56171591
Cl      -2.46168946      -0.75940480      -0.67484051       0.13383452       0.03585522       0.05267385
Cl       2.23014410      -0.41923231       0.69857259      -1.56817736       0.22081792      -0.46313757
H        0.38747278      -0.44481579      -0.95754523       0.08686955      -0.76277538       0.09517258
H       -0.21650397      -0.29371643       0.66991401      -2.58509610      -1.67457914       2.60939295
N        0.28236102       2.20265799       1.16764841       2.27860675       5.47185148      -3.31857410
O        0.72603277       3.47780385       1.11082985      -2.20056398      -6.37433726       0.76745331
O       -0.36658178       1.64958860       2.02557040      -0.06793348       0.25251804       1.01839737
N       -0.56256140       2.02196620      -1.20173577       1.16912906      -5.48365241      -4.16154707
O       -1.54914897       2.56140870      -0.80552572      -1.13259014       1.67071949       0.71944993
O       -0.39173996       1.51828509      -2.40171046       0.02782361       2.58224612       4.59372417
13
Properties=species:S:1:pos:R:3:mp2_forces:R:3 R1=H R2=H R3=NO2 R4=NO2 lg=Cl nu=Br rxn-id=35 mp2_energy=-95780.98724676337 pbc="F F F"
C        0.57852475       0.01140634       0.09307647      -1.67391794       0.88623235      -6.20548381
C        0.40376396       1.51226878       0.17548335       5.64715667      -0.32978211       1.26199309
H        1.51088120       1.87767444       0.57206836      -2.90716281      -0.31730815      -0.85995747
Cl      -2.41592179      -0.59560304       0.72383461       0.11492183       0.01139554       0.02962095
Br       2.36626637      -0.51664266      -0.75497824      -0.94728875       0.54688167       0.71719946
H       -0.22014828      -0.39110052      -0.65684998       1.54401040       0.47063215       1.77507229
H        0.48605667      -0.38793059       1.00718108      -0.12462589      -1.82478623       3.36483180
N       -0.54893512       1.94044181       1.25955407      -0.72827744       1.78749727      -4.75729582