11
Properties=species:S:1:pos:R:3:mp2_forces:R:3 R1=H R2=H R3=H R4=NO2 lg=F nu=Cl rxn-id=0 mp2_energy=-22927.096685691624 pbc="F F F"
C        0.79464996      -0.00132409      -0.09061030       0.01595700      -0.00860922      -0.00898888
C        0.46465103       1.45755167      -0.10875880      -0.02010692      -0.00330359       0.00786541
H        0.83388883       2.08615085       0.69708679      -0.00180471       0.01766732      -0.01777514
F       -1.95954769       0.48201318       0.82965301      -0.07612698       0.02582141       0.04520082
Cl       2.69471438      -0.28214969      -0.44765396       0.02764859      -0.00554847      -0.00327959
H        0.23282810      -0.52010125      -0.84392452       0.03417668      -0.00725991      -0.02652672
H        0.66784240      -0.34530380       0.91095352       0.03439349      -0.00230931       0.00216952
H       -1.16704203       0.94998156       0.46948623      -0.05909740      -0.02672954       0.02611663
N        0.29316547       2.04294878      -1.35522319       0.01269064      -0.06266712      -0.02811959
O        0.26862882       3.17365832      -1.40662674       0.03716122       0.03654302      -0.00661521
O        0.11182741       1.34462446      -2.37653874      -0.00489160       0.03639540       0.00995277
11
Properties=species:S:1:pos:R:3:mp2_forces:R:3 R1=H R2=H R3=H R4=NO2 lg=Cl nu=Cl rxn-id=1 mp2_energy=-32724.683510718605 pbc="F F F"
C        0.56970848       0.08655156       0.03311117      -0.02323988       0.02275278       0.01001575
C        0.14484313       1.34599536       0.05799858      -0.00915879       0.04641860      -0.06757172
H        0.74483092       1.96818588       0.72647096      -0.02625838       0.02411933       0.03400762
Cl      -2.63489884       0.03961352       0.53700784      -0.01632646      -0.02710554       0.05143352
Cl       2.26276007      -0.26317294      -0.22353118       0.03243308      -0.02559146      -0.03451699
H        0.08083560      -0.55337321      -0.76608693       0.05093222       0.02587367      -0.03638863
H        0.31834679      -0.54772876       1.00815132      -0.02866298      -0.02627437       0.03513721
H       -0.85060732       1.44166400       0.32119115      -0.05061999      -0.01148024       0.00282167
N        0.21321292       2.04982896      -1.43522024       0.05656096       0.02299916      -0.03859611
O        0.18860450       3.26033877      -1.31633476       0.03681601       0.02282418       0.05467990
O        0.48759814       1.42111144      -2.24908140      -0.02247579      -0.07453610      -0.01102222
11
Properties=species:S:1:pos:R:3:mp2_forces:R:3 R1=H R2=H R3=H R4=NO2 lg=Cl nu=Br rxn-id=2 mp2_energy=-90227.65051230778 pbc="F F F"
C        0.60369865       0.00543961       0.07966849       0.07431718      -0.04744389      -0.01205200
C        0.19914807       1.38437850      -0.01028521      -0.02210341      -0.06583472       0.05262538
H        0.76322581       2.01917797       0.60028085      -0.01341035      -0.00175126      -0.05981120
Cl      -2.64312575      -0.10833568       0.59011439      -0.00345107      -0.02188009       0.05016494
Br       2.54754723      -0.26020757      -0.18481534      -0.04018302       0.00562220      -0.02488913
H        0.05081176      -0.51252802      -0.68068027       0.04437437       0.04124286      -0.05875097
H        0.43786927      -0.41088966       0.96891118      -0.04058588       0.06566007       0.02082062
H       -0.90811837       1.38747605       0.18829607      -0.09034371       0.00187684      -0.01736350
N        0.25025700       1.95179692      -1.31458162       0.06343769      -0.01355640       0.03837110
O        0.26837134       3.25988315      -1.35123012       0.04145324       0.02731179      -0.03521477
O        0.18525083       1.23852674      -2.39058764      -0.01350504       0.00875258       0.04609953
11
Properties=species:S:1:pos:R:3:mp2_forces:R:3 R1=H R2=H R3=H R4=NO2 lg=Br nu=Cl rxn-id=5 mp2_energy=-90227.9229227222 pbc="F F F"
C        0.63773278      -0.00683497       0.01294229       0.03973223       0.03815836       0.01504036
C        0.16116188       1.34608945       0.00536039      -0.02322922      -0.02176966       0.04330641
H        0.74562456       2.04079893       0.61810270      -0.01768332       0.01724610      -0.02312150
Br      -2.85571392      -0.13441732       0.62722269      -0.00598128      -0.01570532       0.04207557
Cl       2.34813562      -0.25061146      -0.18438321       0.02621813      -0.02402637      -0.01994277
H        0.19177811      -0.53641054      -0.78837990       0.03455424      -0.01294925      -0.07931506
H        0.31965295      -0.51007191       0.91771671      -0.05386498       0.01404022       0.01668370
H       -0.91227416       1.37248830       0.14973419      -0.06906458      -0.00711667       0.01910100
N        0.32302042       1.97722967      -1.30757249       0.04166692       0.04413479       0.05091624
O        0.52193537       3.19730423      -1.31506604       0.03928205      -0.01512267      -0.03215105
O        0.36619475       1.30051494      -2.31991395      -0.01163020      -0.01688954      -0.03259292
11
Properties=species:S:1:pos:R:3:mp2_forces:R:3 R1=H R2=H R3=H R4=NO2 lg=Br nu=Br rxn-id=6 mp2_energy=-147730.8788609236 pbc="F F F"
C        0.53393599       0.03339886       0.00931590       0.01419081      -0.02861912       0.00475409
C        0.18325729       1.37432529       0.02431959      -0.04611863      -0.01363978       0.03456298
H        0.66703872       1.98008725       0.72069689      -0.02564188       0.01678672       0.01919511
Br      -2.79737170      -0.22303975       0.52504663      -0.00547390      -0.02516578       0.04311339
Br       2.52132571      -0.23216097      -0.17474475       0.03464960      -0.03514527      -0.01940113
H        0.05400279      -0.51666483      -0.73640196       0.04774449      -0.00328471      -0.06883485
H        0.39560685      -0.42833167       0.96512377      -0.00351961       0.00263457       0.03400808
H       -1.01283890       1.35882124       0.24868840      -0.06673751       0.04409437      -0.00132626
N        0.29029064       1.99876564      -1.21188996      -0.03786351       0.01478501      -0.00716568
O        0.41315155       3.29393802      -1.35866046       0.08138018       0.01263901      -0.04921004
O        0.42049643       1.32531076      -2.39715473       0.00738997       0.01491498       0.01030431
10
Properties=species:S:1:pos:R:3:mp2_forces:R:3 R1=H R2=H R3=H R4=CN lg=Cl nu=Br rxn-id=11 mp2_energy=-87177.75964710697 pbc="F F F"
C        0.63313326       0.01605671       0.02272004       0.00820487      -0.05094704      -0.00972499
C        0.17947088       1.39396443       0.12805249      -0.00542685      -0.02122249      -0.01992374
H        0.75504891       1.97798426       0.75446751      -0.03106872       0.00432685      -0.02866154
Cl      -2.60656382      -0.43604509       0.67073195       0.00739657      -0.00386569       0.04698177
Br       2.43869096      -0.20416109      -0.31309745       0.00460848       0.06794934       0.03471028
H        0.06307467      -0.62337234      -0.64601287      -0.05723632      -0.01657351      -0.05701107
H        0.40317922      -0.38750150       1.02857960       0.01182785      -0.00573890      -0.00918336
H       -0.94599930       1.41894565       0.40655494       0.00486917       0.04611222       0.01608747
C        0.27691454       2.12603609      -1.22689396       0.02170232      -0.01934380      -0.00169738
N        0.38033760       2.61499288      -2.32870246       0.03512267      -0.00069697       0.02842256
10
Properties=species:S:1:pos:R:3:mp2_forces:R:3 R1=H R2=H R3=H R4=CN lg=Br nu=Cl rxn-id=12 mp2_energy=-87178.02285730377 pbc="F F F"
C        0.55803964      -0.05100902       0.09398792      -0.01489926       0.01592956      -0.01545634
C        0.15192213       1.47186222       0.00179568       0.00180979      -0.02876894       0.00741827
H        0.70698060       1.93105977       0.82662656      -0.00380792      -0.02245527      -0.01880092
Br      -2.79318262      -0.48307573       0.53247580       0.01250233       0.00165086       0.04273767
Cl       2.34637777      -0.16484542      -0.31549666       0.00012980       0.05007647       0.03544337
H        0.03901392      -0.60354789      -0.69290402      -0.01850048      -0.03102235      -0.02840006
H        0.53027007      -0.44375198       1.01998166      -0.00978649      -0.01592989      -0.00752854
H       -0.91721997       1.30401490       0.33832477       0.00091183       0.01574054      -0.00474163
C        0.19946546       2.14007201      -1.31502610       0.01124759       0.03266302      -0.07846972
N        0.44374550       2.75880196      -2.20654360       0.02039278      -0.01788401       0.06779791
10
Properties=species:S:1:pos:R:3:mp2_forces:R:3 R1=H R2=H R3=H R4=CN lg=Br nu=Br rxn-id=13 mp2_energy=-144680.99138275444 pbc="F F F"
C        0.54967389       0.04366661       0.05094717       0.00020151      -0.02415896      -0.01675381
C        0.11888127       1.39347614       0.06466754      -0.00097542      -0.02981754      -0.01881648
H        0.63737270       2.05853458       0.84710061       0.00288601       0.00311696       0.00004049
Br      -2.65328591      -0.43228739       0.76458948       0.00494286       0.00443744       0.04042859
Br       2.52351151      -0.24928799      -0.42521772       0.00266639       0.04566691       0.04840134
H       -0.00617564      -0.50108235      -0.74464034      -0.03618775      -0.03463303      -0.04237461
H        0.37902654      -0.44621236       1.02912296       0.00915107      -0.00574484      -0.01289707
H       -0.96229845       1.37871280       0.29748536      -0.00051131       0.02090579      -0.00023245
C        0.32605024       2.14793083      -1.16041804      -0.00952875      -0.00994738       0.04645817
N        0.37452713       2.69950156      -2.30392163       0.02735536       0.03017464      -0.04425415
12
Properties=species:S:1:pos:R:3:mp2_forces:R:3 R1=H R2=H R3=H R4=CH3 lg=F nu=F rxn-id=15 mp2_energy=-8640.637465622465 pbc="F F F"
C        0.57389567       0.06085700       0.02530204      -0.00103171      -0.00615324      -0.00339582
C        0.16265944       1.49535602       0.06089170       0.01463606       0.00949839       0.01397197
H        0.95181605       2.03696260       0.66690998      -0.00841663       0.00967657       0.00850622
F       -2.01957758      -0.06939881       0.84482894      -0.02658974       0.02739782      -0.05096823
F        1.85428683      -0.14313528      -0.55330163      -0.05336308       0.01228555      -0.07907125
H        0.00004850      -0.55943901      -0.50959272       0.04926723      -0.01937650       0.05779843
H        0.57078307      -0.52665681       1.01913084       0.02266041      -0.03673397       0.02922868
H       -0.74140462       1.31722781       0.71464037       0.01473185       0.03279352       0.00219033
C       -0.03020719       2.11118901      -1.18855098       0.00731031      -0.01477200       0.02174453
H        0.72750639       1.88365200      -2.00626942      -0.00383819      -0.00722971       0.02861561
H       -1.06316647       1.58777481      -1.58851573       0.03029831       0.02811968      -0.02186535
H       -0.20292398       3.20642374      -1.16954785      -0.04566483      -0.03550612      -0.00675513
12
Properties=species:S:1:pos:R:3:mp2_forces:R:3 R1=H R2=H R3=H R4=CH3 lg=Cl nu=F rxn-id=17 mp2_energy=-18439.012281463445 pbc="F F F"
C        0.43216551      -0.05153984       0.05187096      -0.01609560       0.00528693       0.01170623
C       -0.01893804       1.45933008       0.24360527       0.01563983       0.03619118      -0.01305214
H        0.74324177       2.00851082       0.93689498       0.03101817      -0.00624529       0.00268649
Cl      -2.82584039      -0.54040784       1.41898225      -0.00683801      -0.01969699      -0.00529670
F        1.69504115       0.00656769      -0.56296362      -0.01009095      -0.03012150       0.04774098
H       -0.34006043      -0.57736984      -0.57062146      -0.01280610      -0.04187678      -0.00279343
H        0.53630511      -0.61362212       1.07742635       0.00624394       0.02544152      -0.05931893
H       -0.96855987       1.40160745       0.75435185       0.02508186       0.02210275       0.01686195
C       -0.22894880       2.18428112      -1.06660943      -0.00753745       0.01014452       0.00217382
H        0.76437991       2.06081293      -1.66771050       0.00978815       0.00220472       0.01244659
H       -0.94561339       1.76194715      -1.68728595       0.01111702       0.00329374      -0.01010686
H       -0.44496708       3.22455622      -0.98644952      -0.04552085      -0.00672482      -0.00304800
12
Properties=species:S:1:pos:R:3:mp2_forces:R:3 R1=H R2=H R3=H R4=CH3 lg=Br nu=Br rxn-id=18 mp2_energy=-143241.88254678727 pbc="F F F"
C        0.60433422       0.03641817       0.03134956      -0.03525187      -0.00556441       0.01018565
C        0.17121012       1.46163859       0.04192767       0.00729140      -0.01336782       0.01582051
H        0.83209414       1.98527043       0.72165991       0.02319723       0.01559529      -0.00167890
Br      -2.71091293      -0.27118345       0.80099321      -0.00218435      -0.00532018      -0.01258619
Br       2.31421608      -0.18973329      -0.53625931      -0.01418331       0.03399116      -0.03485763
H       -0.14230005      -0.57362949      -0.51117921      -0.00652120      -0.01399633      -0.00139526
H        0.43031592      -0.46215768       1.01471938      -0.00067831      -0.02064812       0.03559730
H       -0.67131910       1.50048069       0.57435896       0.00449845       0.01555634       0.00489724
C       -0.02018484       2.12690627      -1.22410055       0.01373504      -0.00659272      -0.00046750
H        0.82287510       1.98148378      -1.87990876       0.01578468       0.00687241      -0.00071414
H       -0.82722978       1.70859727      -1.65230419       0.01593602       0.00310428      -0.00375261
H       -0.20275678       3.11918403      -1.19044784      -0.02162376      -0.00962992      -0.01104846
11
Properties=species:S:1:pos:R:3:mp2_forces:R:3 R1=H R2=H R3=H R4=NH2 lg=F nu=F rxn-id=20 mp2_energy=-9077.021277205537 pbc="F F F"
C        0.66342300      -0.02158809       0.01430704      -0.00571460      -0.02751521       0.06564311
C        0.29874135       1.59109767       0.00842721       0.00324247       0.01556103      -0.02387058
H        1.31335712       1.94777351      -0.13751885       0.00833879       0.00715032      -0.00514852
F       -2.07761766       0.01125108      -0.02215170       0.00184950      -0.02440200       0.04067143
F        2.08506759      -0.16903239       0.10209930      -0.01908272      -0.00888752       0.07752670
H        0.27211561      -0.41243801      -0.88885659       0.00420010      -0.01761391      -0.07727791
H        0.04683272      -0.41296498       0.79877256       0.01073822       0.04185885      -0.08340555
H       -0.13007384       1.70265572       0.95878779       0.01977893      -0.00973522      -0.00719232
N       -0.56674288       1.80180491      -1.09893513      -0.01588925       0.00530614      -0.00356195
H       -0.82002374       2.85079962      -1.08291269      -0.00421261       0.00983793       0.00130792
H       -1.36179684       1.18104006      -0.97135844      -0.00324884       0.00843960       0.01530767
11
Properties=species:S:1:pos:R:3:mp2_forces:R:3 R1=H R2=H R3=H R4=NH2 lg=F nu=Cl rxn-id=21 mp2_energy=-18873.699614274356 pbc="F F F"
C        0.71679969       0.09413481      -0.01001297      -0.00501462      -0.00556476      -0.01722899
C        0.54263193       1.67674695      -0.01411830       0.00744160      -0.00272450      -0.01856805
H        1.37209221       1.97607226      -0.10845917      -0.00082185      -0.00651392       0.00457110
F       -1.96585652       0.16018416      -0.04215657      -0.00170443      -0.01895694       0.04592508
Cl       2.42571379      -0.41953268       0.08089344      -0.00605887       0.00140568       0.09937664
H        0.32013202      -0.43424590      -0.94856653      -0.01802471      -0.02679558      -0.06913363
H        0.20439863      -0.41602015       0.78787937       0.02458073       0.02899479      -0.06332226
H        0.07131972       1.83954839       0.86119451       0.02694591       0.00742004      -0.00953461
N       -0.36902435       1.80590316      -1.12180427      -0.01208594       0.01037425       0.02178866
H       -0.52727277       2.78563245      -1.03267964      -0.00359457       0.00559447      -0.00169887
H       -1.16918280       1.24643324      -0.91262220      -0.01166325       0.00676647       0.00782491
11
Properties=species:S:1:pos:R:3:mp2_forces:R:3 R1=H R2=H R3=H R4=NH2 lg=Cl nu=F rxn-id=23 mp2_energy=-18875.07851090274 pbc="F F F"
C        0.64531992       0.01039566      -0.05096891      -0.00569305       0.07573081      -0.03487815
C        0.07855702       1.40432141       0.05634777      -0.00659033       0.00003445       0.00030013
H        0.96492799       2.12942495       0.29059713      -0.01043681       0.00827365      -0.03042729
Cl      -2.90988945      -0.11467624       0.01243757      -0.02230495      -0.00352210      -0.00766248
F        1.99285744       0.00627259      -0.07703292      -0.00817019      -0.02145848      -0.02728364
H        0.13465768      -0.45925942      -0.86602235      -0.01633783       0.00921680       0.05240679
H        0.40999766      -0.54432344       0.84521177       0.00326639       0.04347151       0.00450791
H       -0.67941308       1.67989586       0.89726636      -0.02109192      -0.06631614      -0.00021225
N       -0.48504871       1.83462143      -1.21270868       0.02963011      -0.00590265      -0.01318052
H       -0.72627726       2.73466322      -1.13567492       0.02634153      -0.01930895       0.04685669
H       -1.35005154       1.29706900      -1.33063147       0.03138704      -0.02021890       0.00957280
11
Properties=species:S:1:pos:R:3:mp2_forces:R:3 R1=H R2=H R3=H R4=NH2 lg=Br nu=Br rxn-id=25 mp2_energy=-143677.95600126398 pbc="F F F"
C        0.60978319       0.00809413       0.12479902       0.06378008      -0.00787318       0.03653967
C        0.29857905       1.47023993       0.07032634       0.03541440       0.02870246      -0.00497460
H        1.09462026       2.12438885       0.46642625      -0.02525444       0.03041260       0.01232750
Br      -2.78540250      -0.04156009       0.02309302      -0.06979595      -0.02954553      -0.01390813
Br       2.49618007      -0.13336657      -0.19397244       0.00887877      -0.02216530      -0.07132656
H        0.14961628      -0.51669216      -0.76270028      -0.03396141      -0.02082278      -0.01044688
H        0.52013553      -0.49569930       0.99941317      -0.01416162       0.04005459       0.06778207
H       -0.49470261       1.62907146       0.83094549      -0.00679516      -0.04453703      -0.04977997
N       -0.09555588       1.94511660      -1.26654711      -0.00066857       0.00695434       0.03576730
H       -0.36818805       2.98191523      -1.24961420       0.01114287       0.01739732       0.00917731
H       -1.16862441       1.47605042      -1.35362435       0.03142104       0.00142249      -0.01115774
11
Properties=species:S:1:pos:R:3:mp2_forces:R:3 R1=H R2=H R3=NO2 R4=H lg=Cl nu=Cl rxn-id=26 mp2_energy=-32724.683816591507 pbc="F F F"
C        0.64366295      -0.05019410      -0.01343276      -0.02164361       0.05901267      -0.01069521
C        0.10303507       1.33684413      -0.11389009      -0.03340526       0.03839147       0.03310840
H        0.83191195       1.99760316      -0.69515771      -0.01997200      -0.01053740      -0.02002904
Cl      -2.71096227      -0.10665321      -0.54464864      -0.01918178      -0.03012382      -0.04983947
Cl       2.32977079      -0.24174464       0.21316166       0.04927587      -0.04234831       0.04819417
H        0.26198914      -0.41524004      -1.01066872      -0.03717416      -0.01953303       0.00013015
H        0.11839507      -0.53490321       0.81464977       0.07779781       0.04839005      -0.00739948
H       -0.92067889       1.40445896      -0.31101596      -0.06924329       0.00051405       0.00493961
N        0.27420056       2.07512662       1.34950808       0.04839245       0.03006179       0.02974732
O        0.30346681       3.33980448       1.40984385       0.04393663      -0.04343009      -0.02953266
O        0.29288619       1.40879825       2.36731376      -0.01878267      -0.03039739       0.00137622
11
Properties=species:S:1:pos:R:3:mp2_forces:R:3 R1=H R2=H R3=NO2 R4=H lg=Cl nu=Br rxn-id=27 mp2_energy=-90227.65332596636 pbc="F F F"
C        0.57297438      -0.04582560      -0.06466713       0.07343450      -0.04164470       0.00627970
C        0.10820714       1.32509366       0.01438095      -0.03037652      -0.05146273      -0.03665521
H        0.71457080       2.00931185      -0.79478712       0.00233476      -0.00699964       0.04443463
Cl      -2.72076528      -0.25530008      -0.65118326      -0.00204005      -0.01965845      -0.04952102
Br       2.39979426      -0.18328613       0.22440979      -0.04015985       0.01360864       0.02456108
H        0.40445676      -0.51416358      -0.98552143      -0.05178553       0.05181296      -0.01283386
H        0.15766613      -0.61512403       0.74502994       0.04805874       0.03676898       0.04791329
H       -0.91877994       1.41669160      -0.26996423      -0.09355696      -0.00594201       0.00366389
N        0.17752850       2.10438189       1.30006148       0.07020920      -0.03914895      -0.01296374
O        0.18731219       3.21994328       1.28681851       0.03716469       0.04811700       0.03417422
O        0.28751000       1.30674331       2.21864946      -0.01328297       0.01454890      -0.04905299
11
Properties=species:S:1:pos:R:3:mp2_forces:R:3 R1=H R2=H R3=NO2 R4=H lg=Br nu=Cl rxn-id=29 mp2_energy=-90227.92178438423 pbc="F F F"
C        0.63511573      -0.09652235      -0.04567975       0.02964282       0.02394445      -0.00081812
C        0.25844748       1.38596910       0.07612786      -0.04057267       0.00619494      -0.02690403
H        0.59084659       1.99188953      -0.79631628      -0.01082122       0.00106723      -0.00506140
Br      -2.75733100      -0.25289473      -0.50343252      -0.00974308      -0.02387256      -0.03981742
Cl       2.38207559      -0.15365999       0.04942233       0.04083375      -0.02297450       0.01382888
H        0.29208171      -0.48444846      -1.03964184      -0.04950437       0.00999516      -0.02272647
H        0.15130566      -0.58247001       0.75650846       0.03261580      -0.01126677       0.07099307
H       -0.90735880       1.35306358      -0.15222445      -0.06806231      -0.01052614      -0.02519519
N        0.33699451       2.01763873       1.49992044       0.05210732       0.04171488      -0.01749348
O        0.41245724       3.20047699       1.33952208       0.04532036      -0.00994800       0.05032425
O        0.38268090       1.33857815       2.33011269      -0.02181643      -0.00432868       0.00286991
11
Properties=species:S:1:pos:R:3:mp2_forces:R:3 R1=H R2=H R3=NO2 R4=H lg=Br nu=Br rxn-id=30 mp2_energy=-147730.88333589796 pbc="F F F"
C        0.64839193      -0.08635161       0.00913099       0.01708834      -0.02124271      -0.00162349
C        0.15149460       1.38821727      -0.05072192      -0.04385832      -0.01211813      -0.03815215
H        0.63713286       2.04978088      -0.69892678      -0.01896212       0.01589838      -0.01205037
Br      -2.85977480      -0.28497227      -0.46575139      -0.00496592      -0.02207819      -0.04267027
Br       2.49980905      -0.21670209       0.26250460       0.03200496      -0.03261769       0.01749476
H        0.34148283      -0.50307783      -1.00043452      -0.01629950       0.01154612      -0.02361061
H        0.11652419      -0.69825775       0.79749489       0.05208898       0.00163971       0.06639874
H       -0.85266665       1.41874885      -0.18924640      -0.07473667       0.02978257      -0.00830927
N        0.39118861       2.09231752       1.29943290      -0.01011931       0.02822068      -0.00852327
O        0.28391915       3.32939114       1.31364261       0.06591365      -0.00804471       0.04558483
O        0.38556990       1.33680422       2.39503336       0.00184589       0.00901397       0.00546109
13
Properties=species:S:1:pos:R:3:mp2_forces:R:3 R1=H R2=H R3=NO2 R4=NO2 lg=F nu=F rxn-id=32 mp2_energy=-18685.08247111868 pbc="F F F"
C        0.59024453      -0.11972219       0.02926890       0.01096580      -0.02906078       0.03455467
C        0.39153816       1.44409179       0.29158585      -0.00839175      -0.02944975       0.01293762
H        1.38511798       1.89076295       0.58605088      -0.01924028      -0.00230727      -0.00558845
F       -1.55810332      -0.33670852       1.08160693      -0.04511898       0.05135121      -0.01374297
F        1.77745352      -0.17899754      -0.78709685       0.02501183      -0.00955265      -0.01849311
H       -0.22854792      -0.53174590      -0.52055018       0.01632869      -0.00967444      -0.07614074
H        0.77115327      -0.58229606       0.91652185       0.04586528       0.00408969       0.08241626
N       -0.67586875       1.75949394       1.26988909      -0.00354576       0.02376710      -0.00565475
O       -1.63333594       2.47717888       0.89326563       0.02348609       0.00904520       0.03291591
O       -0.24158542       1.66817129       2.49789594      -0.00006839      -0.05024643       0.00245016
N        0.08837078       2.12326351      -0.87223553      -0.03104199       0.03619106       0.01250306
O        0.46334095       3.34634398      -1.04532899      -0.01904874      -0.00749094      -0.04771524
O       -0.53999262       1.61210984      -1.77092198       0.00479820       0.01333798      -0.01044243
13
Properties=species:S:1:pos:R:3:mp2_forces:R:3 R1=H R2=H R3=NO2 R4=NO2 lg=Cl nu=F rxn-id=33 mp2_energy=-28482.976093326004 pbc="F F F"
C        0.44862817      -0.08077759      -0.02976883      -0.01025942      -0.01448935      -0.00928226
C        0.39394582       1.43786845       0.37734378      -0.01082123      -0.00251747      -0.01200465
H        1.32242529       1.69343797       0.78109428      -0.01010513      -0.02716729      -0.01330152
Cl      -2.12973968      -1.08197396       1.31061468      -0.04401416      -0.04822379       0.02614363
F        1.66306930      -0.22476901      -0.55266929      -0.01418766       0.02556833       0.01359060
H       -0.43983958      -0.41919420      -0.64112095       0.02271808      -0.01386906      -0.03769193
H        0.52882338      -0.60180010       0.89394855       0.02537200       0.03486991       0.00339301
N       -0.67221793       1.89576860       1.28215286       0.00941746      -0.02156062       0.07179957
O       -1.67058074       2.36851990       0.71159193      -0.02391405       0.03390548       0.02687153
O       -0.50017707       1.69517395       2.40411736      -0.00111799       0.02609533      -0.02359743
N        0.18252155       2.21854447      -0.96307278       0.03059196       0.00702435      -0.02338625
O        0.75566438       3.41502739      -0.78788139      -0.00020647      -0.00362573      -0.00572283
O       -0.44962594       1.78816938      -1.90513282       0.02652660       0.00398991      -0.01681146
13
Properties=species:S:1:pos:R:3:mp2_forces:R:3 R1=H R2=H R3=NO2 R4=NO2 lg=Cl nu=Cl rxn-id=34 mp2_energy=-38279.589826174095 pbc="F F F"
C        0.50359851      -0.02606968       0.03241204      -0.02637365       0.01797091      -0.04068253
C        0.48157382       1.42293748      -0.18543904      -0.01001289      -0.01522474       0.01464973
H        1.48152518       1.80725679      -0.69836864       0.00338520      -0.05305618       0.01943314
Cl      -2.46168946      -0.75940480      -0.67484051      -0.04729418      -0.04958109      -0.01272721
Cl       2.23014410      -0.41923231       0.69857259       0.04881674       0.01705833       0.05968313
H        0.38747278      -0.44481579      -0.95754523       0.00837423       0.00882961      -0.06449976
H       -0.21650397      -0.29371643       0.66991401       0.00360908      -0.01786087       0.02904800
N        0.28236102       2.20265799       1.16764841       0.04873674      -0.00366797       0.02687838
O        0.72603277       3.47780385       1.11082985       0.01268712      -0.00181121      -0.01277205
O       -0.36658178       1.64958860       2.02557040       0.01525060       0.03740087       0.01666545
N       -0.56256140       2.02196620      -1.20173577      -0.03275366      -0.00687040       0.00064241
O       -1.54914897       2.56140870      -0.80552572      -0.03465923       0.01559673      -0.04774502
O       -0.39173996       1.51828509      -2.40171046       0.01023389       0.05121601       0.01142633
13
Properties=species:S:1:pos:R:3:mp2_forces:R:3 R1=H R2=H R3=NO2 R4=NO2 lg=Cl nu=Br rxn-id=35 mp2_energy=-95782.56023478224 pbc="F F F"
C        0.57852475       0.01140634       0.09307647       0.02824112       0.01887832       0.03491607
C        0.40376396       1.51226878       0.17548335       0.01552824      -0.05019921      -0.02627548
H        1.51088120       1.87767444       0.57206836       0.01503552      -0.05751072      -0.01728640
Cl      -2.41592179      -0.59560304       0.72383461      -0.04270129      -0.04730605       0.01392775
Br       2.36626637      -0.51664266      -0.75497824      -0.00296836       0.02277610      -0.04073724
H       -0.22014828      -0.39110052      -0.65684998       0.00149030      -0.00573382      -0.02294109
H        0.48605667      -0.38793059       1.00718108       0.00507054       0.00468050       0.07059812
N       -0.54893512       1.94044181       1.25955407      -0.01210159      -0.01566899      -0.02548507