11
Properties=species:S:1:pos:R:3:mp2_forces:R:3 R1=H R2=H R3=H R4=NO2 lg=F nu=Cl rxn-id=0 mp2_energy=-22927.099322200203 pbc="F F F"
C        0.72557192       0.01869804       0.07851293       2.14336932      -4.60159172      -2.13754110
C        1.44855724       1.26528808      -0.06840374       0.26606500       0.57373697      -4.03075323
H        2.46682625       0.98541181      -0.41655812      -0.25194374       0.39397853       0.70308823
F       -0.59025318       0.11710359       0.05225388      -3.47561124       1.07961803       1.05186613
Cl       3.91551133      -0.82107169      -0.07060702       0.13099082      -0.05896540       0.03920865
H        0.87730283      -0.76860854      -0.80083557       0.85761534       2.03028349       1.74208832
H        1.12127247      -0.46859756       0.97129728      -0.32083602      -0.11578905       0.20920399
H        1.34048475       1.98344232       0.65589543       0.22755140       1.25473460       2.50478666
N        0.81716541       2.04803258      -1.21085344      -1.20506411       3.64717707      -1.49309868
O        0.43053747       3.28933986      -1.00570584       1.45809491      -4.35844415      -0.05555534
O        0.71960032       1.53344289      -2.34681501       0.16976833       0.15526164       1.46670637
11
Properties=species:S:1:pos:R:3:mp2_forces:R:3 R1=H R2=H R3=H R4=NO2 lg=Cl nu=Cl rxn-id=1 mp2_energy=-32723.547260402167 pbc="F F F"
C        0.62044665      -0.08083381       0.09090515      -0.94534304       2.77996261      -4.43617865
C        1.15397920       1.41632110      -0.08958208      -0.99305383      -4.57536500      -5.12233078
H        2.21717154       1.35413929      -0.26333654       0.40810609      -0.15543814      -0.65734427
Cl      -1.20830248       0.01261246       0.26386631       0.67220212      -0.20294608       0.47827692
Cl       3.76589098      -0.64013996      -0.40153008       0.00782733       0.03052414       0.08551426
H        0.77209641      -0.65463454      -0.90630925       0.21079434       0.93475169       2.25112925
H        1.11068573      -0.40663088       0.93359208       0.76612249      -1.56883010       1.87024507
H        0.97727110       2.02474411       0.66004489      -1.39177164       2.94655079       3.93038346
N        0.41180638       2.06574948      -1.30187978       0.15494015       0.94801427      -1.62595133
O        0.08424258       3.30401833      -1.09085643       0.61408415      -3.51872421      -1.06906995
O        0.25142404       1.41979416      -2.42651856       0.49609184       2.38150004       4.29532603
11
Properties=species:S:1:pos:R:3:mp2_forces:R:3 R1=H R2=H R3=H R4=NO2 lg=Cl nu=Br rxn-id=2 mp2_energy=-90226.52474925214 pbc="F F F"
C        0.51701191      -0.07210019       0.01648452       3.46174962       1.65714954       1.29829063
C        1.08366750       1.32471925      -0.08471606       1.32434008       1.06847689      -1.23028980
H        2.16715585       1.30547274      -0.38327875      -0.61288068      -0.59160893       0.79529324
Cl      -1.11405888      -0.00981890       0.37272760      -3.06996681      -0.28729937       0.56024802
Br       3.97287157      -0.68217654      -0.54905377      -0.08985634       0.05187279       0.03179490
H        0.77677626      -0.56374749      -0.87150347       0.02999225      -1.03450882      -1.20779634
H        1.11379625      -0.46643969       0.83087583      -0.15613883      -0.73085898       0.12071237
H        0.92046486       2.03230290       0.75371309      -0.13518679      -0.67872208      -0.59030693
N        0.50029682       1.94733549      -1.30643097      -2.99183129       9.89801975       5.49272305
O        0.06332738       3.27127154      -1.11434288       2.62002326      -6.86793741      -1.10358546
O        0.29126189       1.34735701      -2.27450423      -0.38024444      -2.48458338      -4.16708368
11
Properties=species:S:1:pos:R:3:mp2_forces:R:3 R1=H R2=H R3=H R4=NO2 lg=Br nu=Cl rxn-id=5 mp2_energy=-90226.88598781142 pbc="F F F"
C        0.66140482       0.00887503      -0.00655663      -1.27532039       0.38033506       0.76109174
C        1.09194700       1.46479804      -0.16969164       1.46008559      -1.36744667       4.94261288
H        2.25410334       1.35294290      -0.27131005      -1.84128756       0.38198760      -0.27910803
Br      -1.35965947      -0.21269250       0.31022648       0.83075991       0.39563401      -0.24456925
Cl       3.75948981      -0.55421258      -0.34806513      -0.02449046       0.12340149       0.06582783
H        0.85508808      -0.57560896      -0.86573423       0.27934422      -0.50407455      -0.81241421
H        1.04129912      -0.46561960       0.89121616       0.46959736       0.27746829      -0.15176238
H        0.83299088       2.01134814       0.85203399       0.59989036      -0.75982701      -2.39798454
N        0.44007912       2.10993385      -1.22838654      -0.22445035      -1.63441824      -6.42654005
O        0.04593100       3.27032891      -1.13476277      -0.18516463       0.14616347       0.28393708
O        0.40478489       1.42510246      -2.36084221      -0.08896408       2.56077655       4.25890895
11
Properties=species:S:1:pos:R:3:mp2_forces:R:3 R1=H R2=H R3=H R4=NO2 lg=Br nu=Br rxn-id=6 mp2_energy=-147730.42941618175 pbc="F F F"
C        0.57142659       0.01334182       0.00098962       1.07521525      -1.59726218       0.30298105
C        1.10977316       1.40061491      -0.09265080       1.08570775      -0.94730957      -2.19748570
H        2.22578628       1.20821671      -0.31928808      -1.44480492       0.58502765       0.34768874
Br      -1.32076666      -0.14434638       0.36083873      -0.44738507       0.20723865       0.01083283
Br       3.84795022      -0.68444510      -0.29464959       0.11636390      -0.01498478       0.02495688
H        0.82210807      -0.64655714      -0.86206712      -0.26629748       0.94251192       0.49795987
H        1.09122972      -0.44907425       0.85279609      -0.24482127       0.07042677      -0.22633295
H        0.90503037       1.99086841       0.76545240      -0.00450805       0.60128198       0.78320575
N        0.44634577       2.11714678      -1.27042574       2.76796755      -6.57847403       0.66068956
O        0.01805626       3.16394671      -1.03352693      -2.49302101       6.09662544       0.30134732
O        0.36764737       1.45396078      -2.29871205      -0.14441665       0.63491814      -0.50584334
10
Properties=species:S:1:pos:R:3:mp2_forces:R:3 R1=H R2=H R3=H R4=CN lg=Cl nu=Br rxn-id=11 mp2_energy=-87177.48076935242 pbc="F F F"
C        0.64890946      -0.00079577      -0.03532915       0.97934546      -2.92952331       1.46441938
C        0.97050781       1.44628100      -0.19811930       2.39000192      -0.05170809       4.15261734
H        2.07632229       1.53787992      -0.29628893      -0.37791619      -0.38108643      -0.05575267
Cl      -1.11655389      -0.20074720       0.34021384       0.08247894      -0.02369582      -0.07524801
Br       3.91271977      -0.27112690      -0.71193725       0.09020366      -0.01051520       0.02588250
H        0.88890156      -0.64057725      -0.92838316      -0.27837716       1.01517471       0.75031322
H        1.23152057      -0.52199800       0.84865569      -1.09038223       1.45212610      -1.82229941
H        0.72202810       2.05106833       0.74936949       0.09103509      -0.96842843      -1.24263121
C        0.37287402       2.01255190      -1.28457790      -3.57285289       3.66356771      -6.18886480
N       -0.16040479       2.55347205      -2.23583978       1.68646344      -1.76591123       2.99156367
10
Properties=species:S:1:pos:R:3:mp2_forces:R:3 R1=H R2=H R3=H R4=CN lg=Br nu=Cl rxn-id=12 mp2_energy=-87177.18989391283 pbc="F F F"
C        0.62491971      -0.03110263      -0.00543273      -1.33411548       1.71103563       2.24276587
C        0.86235163       1.44333029      -0.14549763       4.81537620       0.65073010       0.85404314
H        2.03714238       1.37477949      -0.34045711      -1.65593814       0.22923536       0.66473289
Br      -1.24658847      -0.27964772       0.44808306      -0.81308170      -0.42421642       0.20734344
Cl       3.88737248      -0.22780082      -0.66386649      -0.14399798       0.07380949       0.06099857
H        0.78107708      -0.53491081      -0.88231923       0.69250839      -1.31983192      -2.15048636
H        1.20093807      -0.42493436       0.82240185       0.21083672      -0.09514237      -0.15184257
H        0.76823343       2.07015520       0.80000641      -0.27519894      -0.93486936      -1.20421344
C        0.43136943       2.12176005      -1.32413003      -2.89958637       0.65479181      -1.97627389
N       -0.15322452       2.58157197      -2.26251927       1.40319729      -0.54554233       1.45293235
10
Properties=species:S:1:pos:R:3:mp2_forces:R:3 R1=H R2=H R3=H R4=CN lg=Br nu=Br rxn-id=13 mp2_energy=-144680.39366097373 pbc="F F F"
C        0.55189057       0.03890593       0.06205368      -0.40604002      -2.53344627      -3.33878073
C        0.96170084       1.46938734      -0.18401893       1.01436746      -1.78938835       2.03569385
H        2.03778243       1.38948130      -0.43463649      -0.12448277       0.09682756       0.32149690
Br      -1.42201649      -0.30813338       0.48255356       1.31909987       0.49255827      -0.13987680
Br       3.79789879      -0.30986630      -0.62229158       0.14433480      -0.05914884       0.01247310
H        0.80344944      -0.65175849      -0.87205001      -0.88957324       1.76657784       1.70682420
H        1.15483416      -0.44376071       0.78763352       0.30269874      -0.05652715       1.30630501
H        0.77162615       1.99159416       0.71803436       0.40133118       0.79011849       1.28847566
C        0.27168987       2.12032617      -1.17559305      -2.34741769       1.55917328      -4.79876568
N       -0.25001805       2.54264666      -2.16093099       0.58568166      -0.26674484       1.60615447
12
Properties=species:S:1:pos:R:3:mp2_forces:R:3 R1=H R2=H R3=H R4=CH3 lg=F nu=F rxn-id=15 mp2_energy=-8639.670315065494 pbc="F F F"
C        0.55347612       0.02373621      -0.00202662      -0.18335394      -5.05859705       2.36150289
C        1.01896865       1.35615588      -0.18771895      -3.00504043       3.93333507       1.97269782
H        2.03606276       1.25297338      -0.25896966       2.82157012      -0.51256055      -0.80530634
F       -0.86361397      -0.08919298       0.57935885       1.94039482       0.47226015      -1.37101814
F        3.04665094      -0.28473894      -0.93497393      -0.10578557       0.05015750      -0.08402924
H        0.66776707      -0.60045170      -0.92686450      -0.64101734       0.63352616       0.83151445
H        1.19679838      -0.55589223       0.79115792      -1.26827401       1.29961615      -1.55592905
H        0.87021731       1.92467312       0.83863496      -0.22985098      -0.60069580      -2.02580713
C        0.38662139       2.00592967      -1.46123673      -0.03167425       3.12428853       3.84091840
H        0.89313838       1.53788134      -2.20097328       1.00456834      -1.74707436      -2.94110539
H       -0.70482540       1.94129721      -1.43305036       0.18749462      -0.25484911      -0.38292288
H        0.67867298       3.11286183      -1.53504485      -0.48903137      -1.33940670       0.15948460
12
Properties=species:S:1:pos:R:3:mp2_forces:R:3 R1=H R2=H R3=H R4=CH3 lg=Cl nu=F rxn-id=17 mp2_energy=-18436.05413352333 pbc="F F F"
C        0.48137181       0.09829920       0.09774656       1.29791768      -7.15412322       2.50845322
C        0.82882086       1.45013068       0.07307829      -3.38600053       3.64399818      -2.93657865
H        1.85140129       1.39913972      -0.02135520       2.66547604       0.37729165       0.04676831
Cl      -1.30997106      -0.31420733       0.26427490       0.17306853       0.31039903      -0.25941044
F        2.53864361       0.09159034      -1.56181260       0.18839260      -0.17975548      -0.11237310
H        1.02221470      -0.50018337      -0.77381615      -1.10967381       1.64310570       1.39213350
H        0.92858741      -0.40235889       1.11844669      -1.01901040       0.96773101      -2.30144979
H        0.38582746       2.06161865       0.87600154       0.43395166      -0.14492252      -0.04032805
C        0.33111303       1.98449903      -1.37052409       6.83636239      -2.01328970       1.22896278
H        1.01096421       1.48036369      -2.14905977      -1.01817260       0.15526848       1.54631053
H       -0.61270527       1.84458221      -1.57491724      -5.36208269      -0.74869726      -0.82751688
H        0.61830211       2.96443412      -1.42018667       0.29977114       3.14299414      -0.24497143
12
Properties=species:S:1:pos:R:3:mp2_forces:R:3 R1=H R2=H R3=H R4=CH3 lg=Br nu=Br rxn-id=18 mp2_energy=-143240.5750444216 pbc="F F F"
C        0.49644950       0.06536116       0.04462619       2.34812548      -5.52843805      -1.17921354
C        0.88200125       1.42896302      -0.10817430       4.61384303       2.36916182      -1.42504774
H        2.10215824       1.53208181      -0.14930842      -3.01517425      -0.77445671       0.36341290
Br      -1.33637508      -0.19749056       0.47155159      -1.34823739      -0.03894460       0.21516708
Br       3.81011634      -0.52160121      -0.90217281       0.05581693      -0.02128701      -0.02909619
H        0.75074672      -0.61618558      -0.91791305      -0.67344745       1.87685904       2.08233138
H        1.08475089      -0.49565555       0.84371653      -0.72547034       1.03313312      -0.88962498
H        0.55000076       2.01852804       0.66552433      -0.68172058       1.25062970       2.56737288
C        0.39398625       2.09827549      -1.33454684       3.81046168       0.15680267      -4.04052704
H        1.00805292       1.60874954      -2.28163727      -1.81756401       1.20020785       2.18857164
H       -0.60892634       2.01305286      -1.49157235      -3.13531251      -0.85736835      -0.52923424
H        0.53551659       3.20010114      -1.45672612       0.56867939      -0.66629949       0.67588787
11
Properties=species:S:1:pos:R:3:mp2_forces:R:3 R1=H R2=H R3=H R4=NH2 lg=F nu=F rxn-id=20 mp2_energy=-9075.373198931107 pbc="F F F"
C        0.68989446       0.02846879      -0.08426435      -1.29106918       0.57543829       1.72326183
C        1.17437939       1.51126693       0.07795610       3.07290096      -6.21275613      -9.83897782
H        2.24569724       1.11353705      -0.13225263      -0.50501267       1.38325024       1.34750549
F       -0.79654190       0.13934700      -0.05140073       0.81229074      -0.61997975      -0.21399588
F        3.27535492      -0.38276628       0.23140634      -0.18012436       0.13475625      -0.09818833
H        0.97182299      -0.61868852      -0.97049641      -0.15131026       1.65317729       0.89247812
H        0.99847690      -0.51800173       0.82791710      -0.25622473       0.19257182      -0.63141983
H        0.91017467       1.93215869       0.90989361      -1.50386276       2.46274526       5.09763170
N        0.70036801       2.17614081      -1.25260884      -1.10238791      -1.34121266       2.62740760
H        1.13108673       3.07067598      -1.19055484      -0.18073224       1.22838643      -0.28198074
H       -0.33319248       2.22324654      -1.07299013       1.28553242       0.54362296      -0.62372213
11
Properties=species:S:1:pos:R:3:mp2_forces:R:3 R1=H R2=H R3=H R4=NH2 lg=F nu=Cl rxn-id=21 mp2_energy=-18873.64698923417 pbc="F F F"
C        0.62612242      -0.00730850      -0.09569072       3.77632112       2.06286430       3.86362483
C        1.29875910       1.43266525       0.02578655      -2.95183426      -1.22672703      -3.66730683
H        2.32309055       1.23369404      -0.07267681       1.65253053       0.02292288      -0.42192789
F       -0.70187051       0.12794689      -0.10006243      -2.49936298      -0.06162040       0.19696941
Cl       4.10382693      -0.79470105       0.09707005      -0.00851671       0.00475284       0.03825320
H        0.94708073      -0.46966680      -0.97694423       0.60764550      -0.79713864      -1.30971288
H        1.04304712      -0.54702845       0.85912985      -1.18655451       0.41833422      -1.89690098
H        1.11146642       1.87896034       0.98368837      -0.53985440       0.53036717       0.50206647
N        0.70414487       2.22238699      -1.26447090       9.31664865      -4.15166845       0.85490267
H        1.15864114       3.07873078      -1.28174374       0.79089576       2.03253354      -0.09742930
H       -0.14847231       2.30128296      -1.05850523      -8.95791871       1.16537956       1.93746131
11
Properties=species:S:1:pos:R:3:mp2_forces:R:3 R1=H R2=H R3=H R4=NH2 lg=Cl nu=F rxn-id=23 mp2_energy=-18872.54020781572 pbc="F F F"
C        0.46289688      -0.04347424      -0.09872393       3.41625103      -0.70376527       4.55132115
C        0.98597774       1.36294900      -0.04785449      -5.65823722       1.98276863       1.23600470
H        1.99161299       1.28708432      -0.11354264       3.62462664      -0.42185377      -0.27887418
Cl      -1.24512436      -0.19100720       0.19384478      -1.59605841      -0.00740511       0.10541020
F        3.26500764      -0.10397690       0.22540081      -0.14476552       0.01977895       0.05522331
H        0.71346184      -0.51064129      -1.01815634       0.37009832      -0.39353085      -0.67924991
H        1.07615284      -0.51859955       0.84670594      -1.47745100       0.60450613      -2.89746227
H        0.67587861       1.93489122       0.95820042       0.74978146      -1.61961234      -1.50140896
N        0.37929324       2.08808776      -1.16719987       1.87199489       0.67501657      -0.98461457
H        0.83973895       2.99369971      -1.23213949      -0.25358666      -0.13812261      -0.14395241
H       -0.59679638       2.24418433      -1.09487248      -0.90265352       0.00221966       0.53760295
11
Properties=species:S:1:pos:R:3:mp2_forces:R:3 R1=H R2=H R3=H R4=NH2 lg=Br nu=Br rxn-id=25 mp2_energy=-143677.31096305043 pbc="F F F"
C        0.69718076      -0.02080417       0.01362415      -2.62242318       2.46248220      -2.96845776
C        1.00430998       1.47137646      -0.05138577       3.16011041      -1.15925981      -2.00435375
H        2.15996934       1.42295509      -0.16669694      -1.64869621      -0.14925149      -0.25372406
Br      -1.34851561      -0.31012074       0.16832488       0.94111442       0.12929435       0.17978753
Br       3.99842281      -0.67127205      -0.10273707       0.06103704       0.00974640       0.03877544
H        0.93494990      -0.57744066      -0.89486301       0.17084292       0.35616854       0.27555718
H        1.15523939      -0.36624697       0.83677120       1.33090429      -1.91575465       3.01793691
H        0.96634956       2.00427685       0.84479160      -0.99960106       0.48596871       2.21678213
N        0.47306501       2.20118013      -1.17325109       0.43267451      -0.49731504      -0.89256616
H        0.99213452       3.04325828      -1.34966078       0.17864361       0.11838489       0.07806450
H       -0.48391893       2.43148090      -1.07102050      -1.00460678       0.15953589       0.31219805
11
Properties=species:S:1:pos:R:3:mp2_forces:R:3 R1=H R2=H R3=NO2 R4=H lg=Cl nu=Cl rxn-id=26 mp2_energy=-32723.27353470157 pbc="F F F"
C        0.52767944      -0.05509683      -0.04414296       7.39990325      -1.05633417       1.13307374
C        1.16911819       1.32575492       0.13280372      -5.10662938       2.36826142      -2.29003761
H        2.19600456       1.35947102       0.38210537       1.02436127      -0.44283669       0.49340167
Cl      -1.11896308      -0.07018938      -0.31795436      -2.40652138       0.04914453      -0.41266202
Cl       3.75656536      -0.54712968       0.35307035       0.15989530      -0.04176132      -0.03604715
H        1.21473446      -0.47548174      -0.94584736      -1.99044516       0.31094405       2.29950100
H        0.91868140      -0.53252110       1.00031831      -1.45114548       0.28192721      -2.79378909
H        0.90311804       2.03688281      -0.77245898       0.75986152      -1.48569045       1.60590181
N        0.33584383       2.02915724       1.26822378       3.97770378      -0.45093772      -1.73278051
O        0.04192106       3.18124213       1.10869627      -1.52056720       2.20080049      -0.73639989
O        0.42128317       1.49429450       2.33451695      -0.84641652      -1.73351736       2.46983806
11
Properties=species:S:1:pos:R:3:mp2_forces:R:3 R1=H R2=H R3=NO2 R4=H lg=Cl nu=Br rxn-id=27 mp2_energy=-90226.35092616941 pbc="F F F"
C        0.55210417       0.04889811      -0.01966945       1.26107192      -1.30629477       3.33015635
C        1.08842774       1.41855924       0.12787668      -5.95922737       1.28209484      -2.86483950
H        2.07728614       1.34977681       0.16027391       4.66399391      -0.00625433       1.21868957
Cl      -1.14769182      -0.08946273      -0.25694933      -1.37536500       0.11064157      -0.57526769
Br       3.88643359      -0.62189041       0.46210569       0.00395488       0.05418103      -0.09540025
H        1.12714958      -0.38728026      -0.76479274       0.66355420      -1.03438827      -1.88245592
H        0.82397235      -0.56786601       0.89334998      -0.35854649       1.00205985      -1.00184071
H        0.81915932       2.00188422      -0.82268188       0.29924200      -0.48662050       1.35346480
N        0.39322543       2.13991130       1.21845297       2.11232324     -12.22830723       6.72760761
O        0.16219024       3.23395683       1.19235682      -2.16598439      10.29701018      -1.32380155
O        0.18506552       1.41638797       2.33453254       0.85498309       2.31587762      -4.88631271
11
Properties=species:S:1:pos:R:3:mp2_forces:R:3 R1=H R2=H R3=NO2 R4=H lg=Br nu=Cl rxn-id=29 mp2_energy=-90226.96562861373 pbc="F F F"
C        0.71518567      -0.06725203      -0.00898491      -1.24401902       2.15654805      -0.42588331
C        1.11298658       1.42010992       0.14719331       0.71957868      -2.18017655      -2.98036179
H        2.19480403       1.39421699       0.24446387       0.35016323       0.07235404       0.67627722
Br      -1.31587312      -0.08865586      -0.22354678       0.86895248      -0.22800915      -0.15912854
Cl       3.77254280      -0.57241453       0.25942741       0.01886257       0.06866301      -0.06468048
H        1.18706746      -0.50644340      -0.88106190      -0.09911390      -0.08827276       0.13945930
H        0.89922785      -0.54316044       0.90493577       0.33497648      -1.08565618       1.01432103
H        0.89951184       1.93682349      -0.77025502      -0.27049076       0.46840400      -0.42047722
N        0.44566059       2.08241060       1.17248844      -1.74073506      -0.23384116       7.84250746
O       -0.00049955       3.25119492       1.08442383       0.62291072      -1.17586618      -0.81499703
O        0.36401442       1.43531208       2.33830763       0.43891458       2.22585286      -4.80703664
11
Properties=species:S:1:pos:R:3:mp2_forces:R:3 R1=H R2=H R3=NO2 R4=H lg=Br nu=Br rxn-id=30 mp2_energy=-147730.0605153936 pbc="F F F"
C        0.61277979      -0.04041901       0.02944631       0.31302595      -0.67267382      -1.47528612
C        1.09736347       1.37602064       0.07463302      -0.47930004       1.96391653       1.67333634
H        2.14938416       1.32286811       0.38231720       0.06146981       0.04692229      -0.35964635
Br      -1.30882560      -0.12375403      -0.26382893      -0.51961213       0.00318724       0.02886065
Br       3.93797719      -0.57276676       0.28113778       0.05535188      -0.03376098      -0.02095965
H        1.04444434      -0.49950268      -0.87875523      -0.04604879       0.12503724       0.56486041
H        0.85888343      -0.71387330       0.87292400       0.02696509       1.03389073      -0.27215779
H        0.92240778       2.16109123      -0.75367699       0.13842721      -2.01848977       0.86189024
N        0.41062262       2.14260875       1.31056319       3.49995159      -7.70595309      -2.69527606
O        0.09752600       3.21094377       1.09155865      -2.64320101       8.40756123      -0.95043968
O        0.33105995       1.51826541       2.32082479      -0.40702953      -1.14963763       2.64481802
13
Properties=species:S:1:pos:R:3:mp2_forces:R:3 R1=H R2=H R3=NO2 R4=NO2 lg=F nu=F rxn-id=32 mp2_energy=-18683.92780663797 pbc="F F F"
C        0.66346866      -0.07888871      -0.07356265      -6.48154657      -0.53640024       0.23162246
C        1.06446766       1.23451409      -0.13029274       3.44978921       6.89121148      -2.77164288
H        2.20147377       1.30255174      -0.10492370      -1.47542412      -0.21912845       0.09890272
F       -0.61367138      -0.12510924       0.68161263       0.39167541      -0.01911042      -0.75063199
F        2.75096527       0.00818953      -1.34402324      -0.27138406       0.07462091       0.24044797
H        0.48689749      -0.57077372      -0.95689735      -0.12086079      -0.70401103      -2.16009547
H        1.22781127      -0.56636861       0.52243595       4.37242887      -3.67044997       3.74905980
N        0.43636213       2.19828791       0.87962269      -2.10879124      -0.70765555       0.90541331
O       -0.59676872       2.87885656       0.56682097       2.93644370      -1.38134319       0.79227405
O        0.89180091       2.02944624       2.04395753      -0.67753119       0.82732165      -1.82844256
N        0.80616262       1.93362635      -1.51226521      -2.45318559      -0.00287411      -0.87487735
O        1.45572041       3.01015982      -1.67737847      -1.50554239      -2.34110040      -0.18759849
O       -0.17288894       1.48113809      -2.25861072       3.94392875       1.78891932       2.55556844
13
Properties=species:S:1:pos:R:3:mp2_forces:R:3 R1=H R2=H R3=NO2 R4=NO2 lg=Cl nu=F rxn-id=33 mp2_energy=-28481.215726902352 pbc="F F F"
C        0.57178882      -0.09172079      -0.02583851      -1.38303375      -2.08562165       0.73101478
C        0.90066954       1.33541835      -0.07189959       3.84086958       1.60493814       1.81116938
H        2.05360655       1.36738134       0.13412800      -2.13711339       0.01052131      -1.11854709
Cl      -1.18636036      -0.42588584       0.57135509       0.54909644       0.27746112       0.12276383
F        2.60510781       0.20992741      -1.24731600       0.12307541      -0.02749203      -0.02104870
H        0.50319302      -0.46746613      -1.01678595       0.42570113      -0.10156730      -0.64393870
H        1.22621822      -0.77107380       0.58185718      -0.56510365       1.30573262      -0.52071853
N        0.30240377       2.21560794       1.02744627      -1.93226595      -1.05056734      -0.80271929
O       -0.67138042       2.88643437       0.65502811       0.52645684       0.38336575       0.59354147
O        0.66591566       2.06136698       2.19153143       0.36307518       0.13467336      -0.57034904
N        0.64523290       2.07506312      -1.36830327      -4.36313831      -6.68328553      -0.08468207
O        1.26787445       3.06615830      -1.48999893       1.12729242       3.15919165      -1.53323297
O       -0.25092351       1.49153754      -2.11933032       3.42508805       3.07264991       2.03674692
13
Properties=species:S:1:pos:R:3:mp2_forces:R:3 R1=H R2=H R3=NO2 R4=NO2 lg=Cl nu=Cl rxn-id=34 mp2_energy=-38279.216187909624 pbc="F F F"
C        0.59436310      -0.09645989      -0.01060306      -0.31965320       1.65947825      -0.44379215
C        0.97889222       1.40392583       0.09015895       5.00581234      -2.98996928       0.65381822
H        2.16346439       1.30230658       0.14925679      -2.05588742       0.23351446      -0.37256715
Cl      -1.11059843      -0.34271130      -0.40096734      -0.73460073      -0.03881106      -0.15121937
Cl       3.53983742      -0.31982951       1.07076501       0.04626683       0.07861713      -0.02238705
H        1.15554853      -0.53134753      -0.81780577       0.45183136      -0.07991342      -0.12959138
H        0.80800749      -0.57694815       0.90999155       0.35320503      -0.32100478       0.72737786
N        0.65710983       2.05800060       1.37015293      -2.16267275       1.07296363      -1.71036256
O        1.14931797       3.21759164       1.48481289      -1.07649023      -2.41996620       0.97979660
O       -0.28189837       1.47330217       1.97917786       1.81595882       1.77563269       0.54718285
N        0.57845461       2.12874159      -1.10783331      -2.47348695       0.75734890       3.92008218
O       -0.34889530       2.89684158      -0.88485792      -0.51142385       1.07753480      -0.72290614
O        1.02670911       1.80865050      -2.14749704       1.66114074      -0.80542514      -3.27543192
13
Properties=species:S:1:pos:R:3:mp2_forces:R:3 R1=H R2=H R3=NO2 R4=NO2 lg=Cl nu=Br rxn-id=35 mp2_energy=-95781.38626502984 pbc="F F F"
C        0.68562032      -0.11728773      -0.05151989      -3.71063983       3.09886213       4.60788829
C        0.95243345       1.35082566      -0.14489986       4.56338972       0.78565914       2.21623549
H        2.17659775       1.32472400      -0.13929424      -2.52717474       0.21529452      -0.49789069
Cl      -1.09150452      -0.33167800       0.54043063       0.63189802      -0.11186522      -0.67901544
Br       3.67319383      -0.36188907      -1.11374341       0.04497040       0.08383322       0.03517572
H        0.81174883      -0.54394745      -0.92291174       0.56753150      -2.40273659      -4.51515172
H        1.19129288      -0.57741620       0.74998115       1.18109115      -0.23771855       0.57678946
N        0.62818685       2.16016828       1.11043897      -6.23683538       4.09868106      -0.83028095