11
Properties=species:S:1:pos:R:3:mp2_forces:R:3 R1=H R2=H R3=H R4=NO2 lg=F nu=Cl rxn-id=0 mp2_energy=-22928.07468022901 pbc="F F F"
C        0.72557192       0.01869804       0.07851293      -0.01281066      -0.02712027       0.01423853
C        1.44855724       1.26528808      -0.06840374      -0.00348035      -0.00174318       0.02965986
H        2.46682625       0.98541181      -0.41655812      -0.01615218       0.01863822      -0.02034326
F       -0.59025318       0.11710359       0.05225388       0.02638528      -0.01641307       0.03603798
Cl       3.91551133      -0.82107169      -0.07060702       0.00639585      -0.00522607       0.03608536
H        0.87730283      -0.76860854      -0.80083557      -0.06819230       0.03664571      -0.05883389
H        1.12127247      -0.46859756       0.97129728       0.06004518      -0.04565078      -0.01020219
H        1.34048475       1.98344232       0.65589543      -0.03364269       0.03221965       0.06577747
N        0.81716541       2.04803258      -1.21085344       0.06877231      -0.00746632      -0.04393304
O        0.43053747       3.28933986      -1.00570584       0.00779357       0.01464085      -0.03895145
O        0.71960032       1.53344289      -2.34681501      -0.03511400       0.00147524      -0.00953537
11
Properties=species:S:1:pos:R:3:mp2_forces:R:3 R1=H R2=H R3=H R4=NO2 lg=Cl nu=Cl rxn-id=1 mp2_energy=-32724.69809640813 pbc="F F F"
C        0.62044665      -0.08083381       0.09090515       0.00626180       0.01590312       0.06439091
C        1.15397920       1.41632110      -0.08958208      -0.00923728      -0.00500739      -0.01399280
H        2.21717154       1.35413929      -0.26333654       0.00152115       0.00606745       0.00415348
Cl      -1.20830248       0.01261246       0.26386631       0.00374393       0.00087291       0.08515362
Cl       3.76589098      -0.64013996      -0.40153008       0.02154622       0.01638133       0.04448945
H        0.77209641      -0.65463454      -0.90630925      -0.00124644      -0.04744507      -0.08382902
H        1.11068573      -0.40663088       0.93359208      -0.03309241       0.02008152      -0.08813459
H        0.97727110       2.02474411       0.66004489      -0.01514522      -0.02223553      -0.00174190
N        0.41180638       2.06574948      -1.30187978       0.00846057       0.00891248      -0.00733382
O        0.08424258       3.30401833      -1.09085643       0.02238846       0.00732233      -0.00445901
O        0.25142404       1.41979416      -2.42651856      -0.00520077      -0.00085316       0.00130368
11
Properties=species:S:1:pos:R:3:mp2_forces:R:3 R1=H R2=H R3=H R4=NO2 lg=Cl nu=Br rxn-id=2 mp2_energy=-90227.92708548486 pbc="F F F"
C        0.51701191      -0.07210019       0.01648452       0.01504994       0.01831691       0.01979942
C        1.08366750       1.32471925      -0.08471606      -0.00037776       0.00550294      -0.02913435
H        2.16715585       1.30547274      -0.38327875       0.00481385      -0.01376883      -0.00782882
Cl      -1.11405888      -0.00981890       0.37272760       0.01205889      -0.00458260       0.00547913
Br       3.97287157      -0.68217654      -0.54905377       0.01524217       0.02068759       0.04177804
H        0.77677626      -0.56374749      -0.87150347      -0.08265740       0.03570330       0.02696369
H        1.11379625      -0.46643969       0.83087583       0.05062241      -0.04385451      -0.02105948
H        0.92046486       2.03230290       0.75371309      -0.02064151      -0.04891827      -0.02827870
N        0.50029682       1.94733549      -1.30643097      -0.02118875       0.06542549       0.02908782
O        0.06332738       3.27127154      -1.11434288       0.03144869      -0.02112975      -0.00491858
O        0.29126189       1.34735701      -2.27450423      -0.00437051      -0.01338228      -0.03188817
11
Properties=species:S:1:pos:R:3:mp2_forces:R:3 R1=H R2=H R3=H R4=NO2 lg=Br nu=Cl rxn-id=5 mp2_energy=-90227.66603715112 pbc="F F F"
C        0.66140482       0.00887503      -0.00655663      -0.01579891      -0.00700063      -0.01167433
C        1.09194700       1.46479804      -0.16969164      -0.00668771      -0.01409841      -0.01288315
H        2.25410334       1.35294290      -0.27131005      -0.00643658       0.00808869       0.00026559
Br      -1.35965947      -0.21269250       0.31022648       0.01282889       0.00514828       0.09166358
Cl       3.75948981      -0.55421258      -0.34806513       0.01501871       0.02218307       0.04425237
H        0.85508808      -0.57560896      -0.86573423       0.00872809      -0.03933773      -0.05889176
H        1.04129912      -0.46561960       0.89121616      -0.03243186       0.01606052      -0.05575263
H        0.83299088       2.01134814       0.85203399      -0.01243759      -0.00545227       0.01306902
N        0.44007912       2.10993385      -1.22838654       0.03097113       0.01625106      -0.00484965
O        0.04593100       3.27032891      -1.13476277       0.01654705      -0.00177495      -0.00085947
O        0.40478489       1.42510246      -2.36084221      -0.01030120      -0.00006763      -0.00433956
11
Properties=species:S:1:pos:R:3:mp2_forces:R:3 R1=H R2=H R3=H R4=NO2 lg=Br nu=Br rxn-id=6 mp2_energy=-147730.8945329118 pbc="F F F"
C        0.57142659       0.01334182       0.00098962       0.01774616       0.01949669      -0.00631304
C        1.10977316       1.40061491      -0.09265080      -0.00185000       0.02645681      -0.00182335
H        2.22578628       1.20821671      -0.31928808      -0.01688637      -0.00650592      -0.01014077
Br      -1.32076666      -0.14434638       0.36083873       0.01068187      -0.00728922       0.02487876
Br       3.84795022      -0.68444510      -0.29464959       0.01316348       0.02135478       0.03762515
H        0.82210807      -0.64655714      -0.86206712      -0.07364854       0.03395057       0.01491202
H        1.09122972      -0.44907425       0.85279609       0.04208197      -0.04994512      -0.00432694
H        0.90503037       1.99086841       0.76545240      -0.02605523      -0.03940296       0.03653024
N        0.44634577       2.11714678      -1.27042574       0.05583009      -0.02920301      -0.07029881
O        0.01805626       3.16394671      -1.03352693       0.01672411       0.00957814       0.00972736
O        0.36764737       1.45396078      -2.29871205      -0.03778754       0.02150923      -0.03077063
10
Properties=species:S:1:pos:R:3:mp2_forces:R:3 R1=H R2=H R3=H R4=CN lg=Cl nu=Br rxn-id=11 mp2_energy=-87178.02421178701 pbc="F F F"
C        0.64890946      -0.00079577      -0.03532915       0.00773640       0.01275026      -0.02247349
C        0.97050781       1.44628100      -0.19811930       0.00199238      -0.03049725       0.00858046
H        2.07632229       1.53787992      -0.29628893      -0.00313913       0.01647281      -0.00386167
Cl      -1.11655389      -0.20074720       0.34021384       0.01022419       0.05730183       0.02994038
Br       3.91271977      -0.27112690      -0.71193725       0.00495119       0.00336864       0.04291721
H        0.88890156      -0.64057725      -0.92838316       0.00903180      -0.03185194      -0.03311541
H        1.23152057      -0.52199800       0.84865569       0.00794930      -0.01699156      -0.00733672
H        0.72202810       2.05106833       0.74936949      -0.00320015      -0.02212253      -0.01906853
C        0.37287402       2.01255190      -1.28457790      -0.04317499       0.02949362      -0.06757440
N       -0.16040479       2.55347205      -2.23583978       0.00762899      -0.01792389       0.07199217
10
Properties=species:S:1:pos:R:3:mp2_forces:R:3 R1=H R2=H R3=H R4=CN lg=Br nu=Cl rxn-id=12 mp2_energy=-87177.75769911142 pbc="F F F"
C        0.62491971      -0.03110263      -0.00543273      -0.01083951      -0.05160232      -0.01054372
C        0.86235163       1.44333029      -0.14549763      -0.00058348      -0.02018016      -0.01772115
H        2.03714238       1.37477949      -0.34045711       0.00235241       0.04558531       0.01694116
Br      -1.24658847      -0.27964772       0.44808306       0.00749093       0.06511753       0.03794413
Cl       3.88737248      -0.22780082      -0.66386649       0.01260454      -0.00666681       0.04814382
H        0.78107708      -0.53491081      -0.88231923       0.03211641      -0.01491140      -0.07579882
H        1.20093807      -0.42493436       0.82240185      -0.01607946      -0.00299674      -0.00637735
H        0.76823343       2.07015520       0.80000641       0.01692801       0.00667424      -0.03620407
C        0.43136943       2.12176005      -1.32413003      -0.02557776      -0.01482003      -0.00322197
N       -0.15322452       2.58157197      -2.26251927      -0.01841209      -0.00619962       0.04683797
10
Properties=species:S:1:pos:R:3:mp2_forces:R:3 R1=H R2=H R3=H R4=CN lg=Br nu=Br rxn-id=13 mp2_energy=-144680.9925553691 pbc="F F F"
C        0.55189057       0.03890593       0.06205368      -0.01864708      -0.04481629       0.01737914
C        0.96170084       1.46938734      -0.18401893       0.02931470      -0.03040255       0.01977964
H        2.03778243       1.38948130      -0.43463649       0.04618775      -0.00070298      -0.02409303
Br      -1.42201649      -0.30813338       0.48255356       0.00278993      -0.00083149      -0.01724036
Br       3.79789879      -0.30986630      -0.62229158       0.01463176      -0.00884685       0.03814307
H        0.80344944      -0.65175849      -0.87205001      -0.04760163       0.01533002      -0.00086530
H        1.15483416      -0.44376071       0.78763352       0.03740720       0.02205104      -0.02683579
H        0.77162615       1.99159416       0.71803436      -0.01055651       0.01749372       0.03080170
C        0.27168987       2.12032617      -1.17559305      -0.04461241       0.04654641      -0.07518869
N       -0.25001805       2.54264666      -2.16093099      -0.00891370      -0.01582104       0.03811961
12
Properties=species:S:1:pos:R:3:mp2_forces:R:3 R1=H R2=H R3=H R4=CH3 lg=F nu=F rxn-id=15 mp2_energy=-8640.637551324562 pbc="F F F"
C        0.55347612       0.02373621      -0.00202662      -0.00209426      -0.00590413      -0.00301890
C        1.01896865       1.35615588      -0.18771895      -0.00173185       0.01088773       0.01927449
H        2.03606276       1.25297338      -0.25896966      -0.00745670       0.03355786       0.01062543
F       -0.86361397      -0.08919298       0.57935885      -0.00847898       0.00872886      -0.09330484
F        3.04665094      -0.28473894      -0.93497393      -0.01004408       0.02636217      -0.05639073
H        0.66776707      -0.60045170      -0.92686450      -0.00216991      -0.01638732       0.07563717
H        1.19679838      -0.55589223       0.79115792      -0.00245579      -0.03465114       0.03683478
H        0.87021731       1.92467312       0.83863496       0.01262987       0.00845783       0.00050608
C        0.38662139       2.00592967      -1.46123673       0.00753516      -0.01442195       0.02155120
H        0.89313838       1.53788134      -2.20097328      -0.03483880       0.03090460       0.00214559
H       -0.70482540       1.94129721      -1.43305036       0.02107475      -0.00881450       0.01978258
H        0.67867298       3.11286183      -1.53504485       0.02803061      -0.03872001      -0.03364283
12
Properties=species:S:1:pos:R:3:mp2_forces:R:3 R1=H R2=H R3=H R4=CH3 lg=Cl nu=F rxn-id=17 mp2_energy=-18437.476821088047 pbc="F F F"
C        0.48137181       0.09829920       0.09774656       0.04797884      -0.00808139       0.05498207
C        0.82882086       1.45013068       0.07307829      -0.03365132      -0.07237336      -0.00420823
H        1.85140129       1.39913972      -0.02135520      -0.02755099       0.04701266       0.03825214
Cl      -1.30997106      -0.31420733       0.26427490       0.01440246       0.06153515      -0.06734390
F        2.53864361       0.09159034      -1.56181260      -0.02509800      -0.01996159      -0.06422924
H        1.02221470      -0.50018337      -0.77381615       0.00441592      -0.01622121      -0.00946303
H        0.92858741      -0.40235889       1.11844669       0.03357539      -0.01931634       0.07336802
H        0.38582746       2.06161865       0.87600154      -0.03881506      -0.00805521      -0.01169034
C        0.33111303       1.98449903      -1.37052409       0.03095960       0.01565109       0.00728490
H        1.01096421       1.48036369      -2.14905977      -0.00866975      -0.02501463      -0.02818796
H       -0.61270527       1.84458221      -1.57491724      -0.00476873      -0.00329697       0.02726271
H        0.61830211       2.96443412      -1.42018667       0.00722164       0.04812181      -0.01602713
12
Properties=species:S:1:pos:R:3:mp2_forces:R:3 R1=H R2=H R3=H R4=CH3 lg=Br nu=Br rxn-id=18 mp2_energy=-143241.87832222774 pbc="F F F"
C        0.49644950       0.06536116       0.04462619       0.01634041       0.00148524       0.00147676
C        0.88200125       1.42896302      -0.10817430       0.00348908      -0.02637333       0.00795799
H        2.10215824       1.53208181      -0.14930842       0.00390951       0.03045736       0.01844740
Br      -1.33637508      -0.19749056       0.47155159       0.00747365       0.01726771      -0.03668788
Br       3.81011634      -0.52160121      -0.90217281       0.01067847      -0.00820415      -0.01795423
H        0.75074672      -0.61618558      -0.91791305       0.00656319      -0.00939523       0.00602659
H        1.08475089      -0.49565555       0.84371653      -0.00095227      -0.01420221       0.01951513
H        0.55000076       2.01852804       0.66552433      -0.01382704       0.00285262      -0.00036556
C        0.39398625       2.09827549      -1.33454684      -0.00405326       0.00089444       0.00306616
H        1.00805292       1.60874954      -2.28163727      -0.02721132      -0.02974165       0.00660049
H       -0.60892634       2.01305286      -1.49157235      -0.00473663       0.03078389       0.00609661
H        0.53551659       3.20010114      -1.45672612       0.00232621       0.00417529      -0.01417944
11
Properties=species:S:1:pos:R:3:mp2_forces:R:3 R1=H R2=H R3=H R4=NH2 lg=F nu=F rxn-id=20 mp2_energy=-9076.631673250395 pbc="F F F"
C        0.68989446       0.02846879      -0.08426435      -0.00457546       0.04821619       0.02823556
C        1.17437939       1.51126693       0.07795610       0.03802297       0.01135281      -0.02073176
H        2.24569724       1.11353705      -0.13225263       0.06177617       0.02898278       0.00906382
F       -0.79654190       0.13934700      -0.05140073      -0.01691263       0.01054097       0.00944161
F        3.27535492      -0.38276628       0.23140634       0.01091170       0.02545221       0.03591719
H        0.97182299      -0.61868852      -0.97049641      -0.07560049       0.00819889      -0.00008514
H        0.99847690      -0.51800173       0.82791710       0.03838374      -0.03928556      -0.03721155
H        0.91017467       1.93215869       0.90989361      -0.03935913      -0.06154729      -0.01915828
N        0.70036801       2.17614081      -1.25260884      -0.01534814      -0.01648813       0.00035316
H        1.13108673       3.07067598      -1.19055484      -0.02064647      -0.04696784       0.00580002
H       -0.33319248       2.22324654      -1.07299013       0.02334774       0.03154497      -0.01162464
11
Properties=species:S:1:pos:R:3:mp2_forces:R:3 R1=H R2=H R3=H R4=NH2 lg=F nu=Cl rxn-id=21 mp2_energy=-18875.005922580985 pbc="F F F"
C        0.62612242      -0.00730850      -0.09569072       0.01279476       0.00440839       0.00417867
C        1.29875910       1.43266525       0.02578655       0.00819353       0.00491354      -0.00891081
H        2.32309055       1.23369404      -0.07267681       0.00847697      -0.00228371       0.01972860
F       -0.70187051       0.12794689      -0.10006243       0.01149242       0.00372962       0.09068542
Cl       4.10382693      -0.79470105       0.09707005      -0.02170608       0.01311399       0.03159346
H        0.94708073      -0.46966680      -0.97694423       0.00333910      -0.00547137      -0.06973820
H        1.04304712      -0.54702845       0.85912985      -0.01447837       0.02315043      -0.06743836
H        1.11146642       1.87896034       0.98368837      -0.00850550      -0.00624025       0.00846923
N        0.70414487       2.22238699      -1.26447090      -0.00548634      -0.00233811      -0.00215377
H        1.15864114       3.07873078      -1.28174374       0.01109052      -0.02192764      -0.00262136
H       -0.14847231       2.30128296      -1.05850523      -0.00521100      -0.01105488      -0.00379288
11
Properties=species:S:1:pos:R:3:mp2_forces:R:3 R1=H R2=H R3=H R4=NH2 lg=Cl nu=F rxn-id=23 mp2_energy=-18873.372325594 pbc="F F F"
C        0.46289688      -0.04347424      -0.09872393      -0.01196659       0.04395087       0.04576185
C        0.98597774       1.36294900      -0.04785449      -0.00519809      -0.01571137      -0.02803987
H        1.99161299       1.28708432      -0.11354264      -0.01475139      -0.04598899       0.00391279
Cl      -1.24512436      -0.19100720       0.19384478       0.03091825      -0.06587377       0.04355186
F        3.26500764      -0.10397690       0.22540081      -0.03080910      -0.00002916       0.04402199
H        0.71346184      -0.51064129      -1.01815634       0.03132817      -0.02058092      -0.02882471
H        1.07615284      -0.51859955       0.84670594      -0.02464773       0.02470613      -0.04831170
H        0.67587861       1.93489122       0.95820042       0.04444864      -0.00388853      -0.00076055
N        0.37929324       2.08808776      -1.16719987      -0.01240566       0.01957780      -0.02534070
H        0.83973895       2.99369971      -1.23213949       0.01942464       0.03492888       0.00066531
H       -0.59679638       2.24418433      -1.09487248      -0.02634114       0.02890908      -0.00663627
11
Properties=species:S:1:pos:R:3:mp2_forces:R:3 R1=H R2=H R3=H R4=NH2 lg=Br nu=Br rxn-id=25 mp2_energy=-143677.87169575735 pbc="F F F"
C        0.69718076      -0.02080417       0.01362415      -0.00072165      -0.01074264      -0.01180646
C        1.00430998       1.47137646      -0.05138577      -0.00259989      -0.01772439      -0.01623858
H        2.15996934       1.42295509      -0.16669694       0.00518710      -0.00250343       0.04008237
Br      -1.34851561      -0.31012074       0.16832488      -0.00573238       0.01737416       0.08263748
Br       3.99842281      -0.67127205      -0.10273707       0.00371302       0.01374894       0.03324382
H        0.93494990      -0.57744066      -0.89486301       0.02176470      -0.03247500      -0.07079296
H        1.15523939      -0.36624697       0.83677120      -0.02078553       0.03509190      -0.04927924
H        0.96634956       2.00427685       0.84479160      -0.00466196      -0.01590816      -0.00636817
N        0.47306501       2.20118013      -1.17325109       0.00478020       0.00966395       0.00652748
H        0.99213452       3.04325828      -1.34966078      -0.00440251      -0.00127112      -0.01208441
H       -0.48391893       2.43148090      -1.07102050       0.00345889       0.00474577       0.00407866
11
Properties=species:S:1:pos:R:3:mp2_forces:R:3 R1=H R2=H R3=NO2 R4=H lg=Cl nu=Cl rxn-id=26 mp2_energy=-32724.699693349685 pbc="F F F"
C        0.52767944      -0.05509683      -0.04414296       0.00741956       0.01705467      -0.06389406
C        1.16911819       1.32575492       0.13280372      -0.00860019      -0.00490857       0.01132963
H        2.19600456       1.35947102       0.38210537       0.00102153       0.00629477      -0.00457137
Cl      -1.11896308      -0.07018938      -0.31795436       0.00157126       0.00010491      -0.08334631
Cl       3.75656536      -0.54712968       0.35307035       0.02030970       0.01665583      -0.04248250
H        1.21473446      -0.47548174      -0.94584736      -0.03237773       0.01907910       0.08638214
H        0.91868140      -0.53252110       1.00031831       0.00022736      -0.04587068       0.08292233
H        0.90311804       2.03688281      -0.77245898      -0.01582266      -0.02329500       0.00226531
N        0.33584383       2.02915724       1.26822378       0.01048186      -0.00859042       0.01781931
O        0.04192106       3.18124213       1.10869627       0.01987784       0.01926014       0.00362749
O        0.42128317       1.49429450       2.33451695      -0.00410853       0.00421524      -0.01005197
11
Properties=species:S:1:pos:R:3:mp2_forces:R:3 R1=H R2=H R3=NO2 R4=H lg=Cl nu=Br rxn-id=27 mp2_energy=-90227.92422211217 pbc="F F F"
C        0.55210417       0.04889811      -0.01966945      -0.01308089      -0.01574894       0.00612064
C        1.08842774       1.41855924       0.12787668      -0.00627070      -0.02498137       0.01475576
H        2.07728614       1.34977681       0.16027391       0.00373602       0.00238377      -0.00457459
Cl      -1.14769182      -0.08946273      -0.25694933       0.01150375       0.01873810      -0.09477232
Br       3.88643359      -0.62189041       0.46210569       0.01174635       0.02282084      -0.04590101
H        1.12714958      -0.38728026      -0.76479274      -0.02674205       0.01688965       0.04528796
H        0.82397235      -0.56786601       0.89334998       0.01211175      -0.03966784       0.07667746
H        0.81915932       2.00188422      -0.82268188      -0.00359075      -0.00352016      -0.01890893
N        0.39322543       2.13991130       1.21845297       0.00864840       0.01177968       0.00343029
O        0.16219024       3.23395683       1.19235682       0.01004540       0.00509309       0.00834809
O        0.18506552       1.41638797       2.33453254      -0.00810717       0.00621318       0.00953664
11
Properties=species:S:1:pos:R:3:mp2_forces:R:3 R1=H R2=H R3=NO2 R4=H lg=Br nu=Cl rxn-id=29 mp2_energy=-90227.66649340076 pbc="F F F"
C        0.71518567      -0.06725203      -0.00898491      -0.01662047      -0.01874569       0.00214181
C        1.11298658       1.42010992       0.14719331      -0.00123729      -0.00067576       0.01219984
H        2.19480403       1.39421699       0.24446387       0.00709719       0.00957240      -0.00112612
Br      -1.31587312      -0.08865586      -0.22354678       0.00769569       0.00137802      -0.09548133
Cl       3.77254280      -0.57241453       0.25942741       0.01754595       0.01884623      -0.04029828
H        1.18706746      -0.50644340      -0.88106190      -0.03272941       0.01401609       0.05285008
H        0.89922785      -0.54316044       0.90493577       0.00934886      -0.03971473       0.06872373
H        0.89951184       1.93682349      -0.77025502      -0.02657112      -0.00536525      -0.01556359
N        0.44566059       2.08241060       1.17248844       0.01812362       0.03563434      -0.01417212
O       -0.00049955       3.25119492       1.08442383       0.02814394      -0.00937034       0.01217612
O        0.36401442       1.43531208       2.33830763      -0.01079697      -0.00557531       0.01854985
11
Properties=species:S:1:pos:R:3:mp2_forces:R:3 R1=H R2=H R3=NO2 R4=H lg=Br nu=Br rxn-id=30 mp2_energy=-147730.89102443223 pbc="F F F"
C        0.61277979      -0.04041901       0.02944631      -0.01885589      -0.01956342       0.01159385
C        1.09736347       1.37602064       0.07463302      -0.01608875      -0.02696004       0.02133543
H        2.14938416       1.32286811       0.38231720      -0.00129889       0.00415856      -0.01554173
Br      -1.30882560      -0.12375403      -0.26382893       0.00611942       0.01403132      -0.09650134
Br       3.93797719      -0.57276676       0.28113778       0.01620882       0.02253488      -0.04129537
H        1.04444434      -0.49950268      -0.87875523      -0.02460171       0.01858442       0.06004479
H        0.85888343      -0.71387330       0.87292400       0.01981684      -0.03990411       0.06795535
H        0.92240778       2.16109123      -0.75367699      -0.00619534      -0.00328810       0.01832390
N        0.41062262       2.14260875       1.31056319      -0.01678713       0.02009638      -0.02845012
O        0.09752600       3.21094377       1.09155865       0.02751738       0.01631744       0.01502637
O        0.33105995       1.51826541       2.32082479       0.01416522      -0.00600734      -0.01249112
13
Properties=species:S:1:pos:R:3:mp2_forces:R:3 R1=H R2=H R3=NO2 R4=NO2 lg=F nu=F rxn-id=32 mp2_energy=-18685.527835335157 pbc="F F F"
C        0.66346866      -0.07888871      -0.07356265       0.02305093       0.07294311       0.00275591
C        1.06446766       1.23451409      -0.13029274      -0.02323439       0.01537556       0.00629323
H        2.20147377       1.30255174      -0.10492370      -0.03394831      -0.04402227      -0.00976868
F       -0.61367138      -0.12510924       0.68161263      -0.01950022      -0.04015816      -0.06341578
F        2.75096527       0.00818953      -1.34402324       0.01253434      -0.02103398      -0.03113794
H        0.48689749      -0.57077372      -0.95689735       0.01311380       0.04017383       0.01113711
H        1.22781127      -0.56636861       0.52243595       0.02625007       0.00553930       0.07222079
N        0.43636213       2.19828791       0.87962269      -0.05847816      -0.02467592      -0.01515741
O       -0.59676872       2.87885656       0.56682097       0.04691846       0.00919306       0.02409974
O        0.89180091       2.02944624       2.04395753       0.02498192       0.00408612       0.05021592
N        0.80616262       1.93362635      -1.51226521       0.03901668       0.00586665      -0.00397260
O        1.45572041       3.01015982      -1.67737847      -0.02938790      -0.02651459      -0.01837558
O       -0.17288894       1.48113809      -2.25861072      -0.02131720       0.00322729      -0.02489471
13
Properties=species:S:1:pos:R:3:mp2_forces:R:3 R1=H R2=H R3=NO2 R4=NO2 lg=Cl nu=F rxn-id=33 mp2_energy=-28482.095370107312 pbc="F F F"
C        0.57178882      -0.09172079      -0.02583851      -0.01481198       0.03167692      -0.00411183
C        0.90066954       1.33541835      -0.07189959      -0.02465929      -0.00942784      -0.03760118
H        2.05360655       1.36738134       0.13412800      -0.03096242      -0.03137411      -0.04542779
Cl      -1.18636036      -0.42588584       0.57135509      -0.01313909      -0.01785852      -0.07357046
F        2.60510781       0.20992741      -1.24731600      -0.03375741      -0.03113267       0.02901774
H        0.50319302      -0.46746613      -1.01678595       0.07652743      -0.00950848       0.02436737
H        1.22621822      -0.77107380       0.58185718       0.05977663       0.00629395       0.03605660
N        0.30240377       2.21560794       1.02744627       0.01017595       0.00769855       0.00336198
O       -0.67138042       2.88643437       0.65502811       0.03493285       0.04694111       0.07156128
O        0.66591566       2.06136698       2.19153143      -0.00806411       0.01893882       0.01010129
N        0.64523290       2.07506312      -1.36830327      -0.01972774       0.04742252       0.01298599
O        1.26787445       3.06615830      -1.48999893      -0.01021089      -0.04601085       0.03069553
O       -0.25092351       1.49153754      -2.11933032      -0.02607993      -0.01365940      -0.05743652
13
Properties=species:S:1:pos:R:3:mp2_forces:R:3 R1=H R2=H R3=NO2 R4=NO2 lg=Cl nu=Cl rxn-id=34 mp2_energy=-38280.02545725208 pbc="F F F"
C        0.59436310      -0.09645989      -0.01060306      -0.00782492      -0.05450669      -0.01373523
C        0.97889222       1.40392583       0.09015895       0.01206032       0.00671663      -0.00055394
H        2.16346439       1.30230658       0.14925679       0.02108757       0.00572655       0.01421891
Cl      -1.11059843      -0.34271130      -0.40096734      -0.03652144      -0.00202687      -0.00459238
Cl       3.53983742      -0.31982951       1.07076501       0.02465326       0.02708213      -0.00907740
H        1.15554853      -0.53134753      -0.81780577      -0.03989945       0.02173392      -0.00624801
H        0.80800749      -0.57694815       0.90999155      -0.00724471       0.01037589       0.01412694
N        0.65710983       2.05800060       1.37015293       0.03058737       0.02932712      -0.01184672
O        1.14931797       3.21759164       1.48481289      -0.01576287       0.00085489       0.01390931
O       -0.28189837       1.47330217       1.97917786      -0.01503655      -0.02567901      -0.01283637
N        0.57845461       2.12874159      -1.10783331       0.03901317       0.02189296       0.01667518
O       -0.34889530       2.89684158      -0.88485792      -0.01321888      -0.00878671       0.00906598
O        1.02670911       1.80865050      -2.14749704       0.00810712      -0.03271082      -0.00910628
13
Properties=species:S:1:pos:R:3:mp2_forces:R:3 R1=H R2=H R3=NO2 R4=NO2 lg=Cl nu=Br rxn-id=35 mp2_energy=-95783.2380397326 pbc="F F F"
C        0.68562032      -0.11728773      -0.05151989       0.01415533       0.07556628      -0.01120253
C        0.95243345       1.35082566      -0.14489986       0.02481732       0.03842081       0.00791130
H        2.17659775       1.32472400      -0.13929424       0.01724350      -0.00144653      -0.00903034
Cl      -1.09150452      -0.33167800       0.54043063       0.00245435       0.03068097      -0.00931459
Br       3.67319383      -0.36188907      -1.11374341       0.02674715       0.03634679       0.00860837
H        0.81174883      -0.54394745      -0.92291174      -0.01595877      -0.02924350       0.05379933
H        1.19129288      -0.57741620       0.74998115      -0.05667970      -0.01432357      -0.05282932
N        0.62818685       2.16016828       1.11043897      -0.02741661       0.00286016      -0.01631738