11
Properties=species:S:1:pos:R:3:mp2_forces:R:3 R1=H R2=H R3=H R4=NO2 lg=F nu=Cl mp2_energy=-22925.514720574538 pbc="F F F"
C        0.86997698      -0.16108259       0.02976555       0.28666670       3.67096045      -1.99414311
C        0.74329526       1.53964582      -0.07467952      -0.10156279      -4.43136606       2.10852803
H        1.73141430       1.97856354      -0.12738437       0.28938659       0.27407126      -0.42880332
F       -1.32839425       0.23433161       0.11292271      -0.25840889       0.14120804      -0.00511747
Cl       2.75635358      -0.55306121      -0.01939969      -0.68095240       0.00724764       0.07581312
H        0.42633901      -0.55743038      -0.91030352       0.52849574      -0.00004856       1.25637322
H        0.49299721      -0.47875435       0.97793369      -0.08231114      -0.38313899       0.06000273
H        0.22747468       1.83873572       0.87793540       0.21880196      -0.12538714      -1.55612752
N       -0.03570829       1.94764252      -1.26913186       1.07681383       1.28903104       4.58249005
O       -0.57723405       3.00490479      -1.07772797      -1.67125190       2.21256059      -0.11565355
O        0.07519469       1.41477492      -2.30187994       0.39432230      -2.65513826      -3.98336218
11
Properties=species:S:1:pos:R:3:mp2_forces:R:3 R1=H R2=H R3=H R4=NO2 lg=Cl nu=Cl mp2_energy=-32721.62017962376 pbc="F F F"
C        0.62190932       0.03256951      -0.07132824       1.56412565       1.95656582      10.41889061
C        0.68561911       1.53408393      -0.06342461      -0.75890154      -1.61079483       4.34719041
H        1.74599635       1.78319446       0.10060785      -0.56896488       0.61492227      -0.22283929
Cl      -1.64130261      -0.12140428       0.39759177      -0.24835844       0.13978724      -0.15052378
Cl       2.89453554      -0.41842775      -0.33400110      -0.13197221       0.12725616      -0.12922271
H        0.44779949      -0.54816492      -0.77907473      -1.39741744      -4.54890988      -6.75333494
H        0.69023016      -0.59358467       1.00085798       0.09852103       2.48078270      -3.29207161
H       -0.03500501       1.87734560       0.80519364       1.85456011      -0.33113707      -1.65153220
N        0.16228400       2.11884183      -1.22830895       1.76595909     -10.47272185      -6.75590867
O       -0.09835891       3.21536693      -1.29892053      -2.28436466       9.36027303       0.39901068
O        0.12887965       1.33557782      -2.29152358       0.10681329       2.28397642       3.79034151
11
Properties=species:S:1:pos:R:3:mp2_forces:R:3 R1=H R2=H R3=H R4=NO2 lg=Cl nu=Br mp2_energy=-90225.5771107272 pbc="F F F"
C        0.49944058      -0.06183733       0.02554613       0.16978690       2.98446077       4.06743457
C        0.67650773       1.49657370       0.13644059      -4.91327938      -2.74016792      -4.04956769
H        1.61233132       1.85040282       0.11383736       3.61877936       1.14227642       0.57193893
Cl      -1.76585046      -0.06727499       0.36233528       0.74685988      -0.00936681      -0.12131170
Br       2.96519954      -0.46348899      -0.36266855       0.37924758      -0.08393452      -0.06226855
H        0.42129169      -0.57012372      -0.85852395      -0.25477000      -0.89862233      -1.94341144
H        0.70755385      -0.55040192       0.98499116      -0.36543622      -0.10388812      -0.81551202
H       -0.07250780       1.97359040       0.73056588       0.03406786       0.07914971       0.98486555
N        0.14059117       2.12174150      -1.34029276       3.48819451     -10.82630813       2.89206230
O       -0.11001186       3.21557949      -1.25523109      -2.43600944       9.09182784      -0.95519017
O        0.15358838       1.31018290      -2.25817518      -0.46744101       1.36457308      -0.56903978
11
Properties=species:S:1:pos:R:3:mp2_forces:R:3 R1=H R2=H R3=H R4=NO2 lg=Br nu=Cl mp2_energy=-90224.91244142663 pbc="F F F"
C        0.61264165      -0.07442790       0.06350347      -0.88124393       4.71802024     -10.72486169
C        0.62557400       1.50193635      -0.04116419       4.47410963      -3.37540100       3.47366639
H        1.76085834       1.82412817       0.09179424      -2.32053844      -0.48277356      -0.86517926
Br      -1.78924305      -0.12522821       0.42766053      -0.02720759      -0.08536332      -0.06638058
Cl       2.93203509      -0.42527773      -0.18759745      -0.12457068       0.04632178       0.16089955
H        0.52584416      -0.65225642      -0.92891355       0.05783864       1.14294864       2.23803785
H        0.63488123      -0.48482780       0.88906906       0.63874213      -4.04732123       8.11253470
H        0.12827857       1.92524784       0.77915082      -1.00175590       0.64237224       0.89643917
N        0.11036048       1.96162268      -1.22185576      -2.10342752      10.80760891      -1.54287112
O       -0.21206803       3.29231274      -1.26625377       1.20516543      -6.05599972       1.43148801
O        0.15668640       1.38567555      -2.24416706       0.08288819      -3.31041298      -3.11377302
11
Properties=species:S:1:pos:R:3:mp2_forces:R:3 R1=H R2=H R3=H R4=NO2 lg=Br nu=Br mp2_energy=-147727.80271507934 pbc="F F F"
C        0.68582813      -0.03431845       0.12379900      -0.00420316       3.47566685      -9.97662014
C        0.72797941       1.47196139      -0.05205683      -2.76210364       0.38653423       3.65568553
H        1.71390138       1.82202431       0.03816014       1.32365622       0.77277842      -0.45540074
Br      -1.84406994      -0.16975261       0.46273362      -0.06041026       0.10563224       0.11058453
Br       3.04145177      -0.41885934      -0.21259247      -0.27159044      -0.11561976       0.17480820
H        0.45754241      -0.53344532      -0.84056295       0.27343691       0.01876221       1.31902854
H        0.70753703      -0.47561067       0.95493837       0.15179236      -3.27892058       6.70920621
H        0.16066522       1.85449490       0.86448430       0.66038553       0.02354708      -1.29518602
N        0.05944115       2.14439483      -1.23538546       7.36678257     -18.49905039      -4.84490307
O       -0.34944406       3.14702254      -1.24093687      -5.64165950      13.55858769       0.48871162
O        0.23337620       1.34430190      -2.31701106      -1.03608658       3.55208202       4.11408534
10
Properties=species:S:1:pos:R:3:mp2_forces:R:3 R1=H R2=H R3=H R4=CN lg=Cl nu=Br mp2_energy=-87176.05853229124 pbc="F F F"
C        0.59876564      -0.06270936       0.00721615       0.37041376       7.15872562      -0.36140497
C        0.58990161       1.55574481       0.10159273       2.49116588      -2.91177853      -4.12904316
H        1.62314528       1.86959484       0.31783010      -0.78141275       0.26867187       0.49979724
Cl      -1.65116182      -0.18124046       0.47162542      -0.34335266      -0.17822905       0.02918686
Br       2.95292775      -0.25353257      -0.43610850       0.02453683      -0.16082611      -0.08590673
H        0.37207326      -0.45305372      -0.85947448      -0.89473307      -2.22460035      -4.20767284
H        0.73189453      -0.55893716       0.82715709       0.81941346      -2.88800694       4.56288863
H       -0.20051259       1.77575210       0.68607509      -2.09978114       1.34695492       2.63230922
C        0.25040405       2.10084523      -1.26204266       0.41219636      -0.29395400       0.83004519
N        0.02546782       2.57709018      -2.31385073       0.00155337      -0.11695743       0.22980055
10
Properties=species:S:1:pos:R:3:mp2_forces:R:3 R1=H R2=H R3=H R4=CN lg=Br nu=Cl mp2_energy=-87176.35426396993 pbc="F F F"
C        0.66206348       0.09420588      -0.02498824       1.02883878      -6.97825137       0.20062376
C        0.59408178       1.45675544       0.05189069       0.66335108       6.22200190      -0.85826663
H        1.55907553       1.89346834       0.35657704      -0.13463991      -0.35565850       0.45390140
Br      -1.88035249      -0.28477206       0.48090690      -0.21647161      -0.03405849       0.02064542
Cl       2.87693218      -0.32382080      -0.47498283      -0.68870804       0.38028231       0.15790079
H        0.44056640      -0.59540792      -0.83479518      -0.20793336       0.98118093      -0.08106347
H        0.74737448      -0.45553780       0.87885752       0.07424136      -0.18808510       0.69306228
H       -0.17790190       1.88781828       0.71162369       0.21185050      -0.52398659      -0.25103528
C        0.42774169       2.02282396      -1.28659580      -0.06258628      -1.07841308       3.28188411
N        0.13474279       2.45611183      -2.29880646      -0.66794255       1.57498799      -3.61765239
10
Properties=species:S:1:pos:R:3:mp2_forces:R:3 R1=H R2=H R3=H R4=CN lg=Br nu=Br mp2_energy=-144679.51075344215 pbc="F F F"
C        0.64572141       0.02350362       0.00253462       0.33504502      -2.64175225       0.15482670
C        0.60852124       1.53571611      -0.02795334      -0.18776214      -2.17517949       6.09739636
H        1.57870588       1.77386524       0.38366240       0.26897460       0.86166091       0.04013140
Br      -1.84329527      -0.42412224       0.49155674      -0.01118991       0.13536372       0.02498169
Br       2.98361218      -0.23394678      -0.54304125      -0.09780641       0.01019067       0.02934769
H        0.43468984      -0.58993072      -0.89817169       0.00812363       0.84209935       0.96329335
H        0.82702957      -0.58444922       0.95372753      -0.46201953       1.51966355      -1.58225292
H       -0.18407902       1.94404397       0.66117061       0.72409855      -0.70311181      -0.23369361
C        0.37084968       2.08300694      -1.21942001      -0.95371170       3.37902231      -8.75918280
N        0.20085592       2.55124996      -2.32492884       0.37624785      -1.22795698       3.26515214
12
Properties=species:S:1:pos:R:3:mp2_forces:R:3 R1=H R2=H R3=H R4=CH3 lg=F nu=F mp2_energy=-8638.966930122311 pbc="F F F"
C        0.59986663       0.05341074       0.06350430       0.06185038      -4.61947520      -0.97327971
C        0.65180015       1.49837103       0.03015138      -0.96763482       2.38957868       1.25997043
H        1.64384234       1.86622780       0.19831229       0.74958419      -0.10635516       0.49761907
F       -1.16488856      -0.05762613       0.68408943       0.00902689       0.26447215      -0.12246304
F        2.30848292      -0.23203827      -0.58937643      -0.45520975       0.26061062       0.12993722
H        0.23220770      -0.58875584      -0.77652612       0.41581940       1.24282467       0.74773655
H        0.82745753      -0.60918584       0.92252691       0.09582655       1.33074318      -0.53585201
H       -0.02460640       1.77009003       0.87427692       0.58517230       0.30692044      -0.48849447
C        0.16801297       2.15093192      -1.24939410      -1.01325157      -8.35527588      -2.45646981
H        0.77642273       1.58694973      -2.12423186      -1.05669253       1.53970181       1.81104819
H       -0.88704979       1.71404030      -1.42483582       1.29853415       1.10660796       0.29049810
H        0.19999388       3.12606157      -1.41328134       0.27697482       4.63964674      -0.16025053
12
Properties=species:S:1:pos:R:3:mp2_forces:R:3 R1=H R2=H R3=H R4=CH3 lg=Cl nu=F mp2_energy=-18436.604532084002 pbc="F F F"
C        0.46585459      -0.00355103       0.10377830       0.58696753      -1.08925128      -2.47098662
C        0.54860472       1.54837602       0.04520918      -1.78290613      -2.91758328       1.46271452
H        1.53332505       1.74889210       0.35098992       1.36339501       0.54792520       0.29201708
Cl      -1.49601978      -0.42043061       0.84190552       0.40395526       0.12963626      -0.07594787
F        2.25895854      -0.01807262      -0.84725954       0.58281833       0.07226413      -0.12465618
H        0.37472980      -0.49808087      -0.94335785      -0.27053974       0.80622464       2.55553752
H        1.06496677      -0.60258457       0.82567988      -0.93481179       0.82338441      -0.52007960
H       -0.17722273       1.86985706       0.82417094       0.36506034       0.56232888      -0.70720736
C        0.27370171       2.01060435      -1.33298726      -0.11319261       1.13498468      -0.91657546
H        0.94986692       1.62867563      -2.09335198       0.68176598       0.06905016       0.54237173
H       -0.67962494       1.76672591      -1.73367882      -1.38471268      -0.75735291       0.19626087
H        0.22636403       3.09276747      -1.34502956       0.50220050       0.61838911      -0.23344862
12
Properties=species:S:1:pos:R:3:mp2_forces:R:3 R1=H R2=H R3=H R4=CH3 lg=Br nu=Br mp2_energy=-143239.89871495726 pbc="F F F"
C        0.61010121       0.18513869      -0.01180362       0.89373902      -9.82168694       2.81501749
C        0.62531741       1.52970991       0.04478980      -4.03997233       6.30187372      -1.04833147
H        1.55439404       1.85559282       0.37171100       1.79594916       1.07972467       0.40388021
Br      -1.80791892      -0.29344877       0.64006718      -0.61528502      -0.01838379       0.06555560
Br       2.91838476      -0.33559671      -0.61669000       0.01991610       0.13061053      -0.17049062
H        0.30787825      -0.50779294      -0.78084538      -0.05104490       0.79369108      -0.54310977
H        0.80168605      -0.51698405       0.91014049      -0.32787402       2.08947233      -1.71471559
H       -0.16703038       1.92455250       0.76260649       1.14284926      -0.66887924      -0.52840902
C        0.18433611       2.09059909      -1.37073132       3.47520803       3.61526926       3.35953076
H        0.93526419       1.73950740      -2.00783219       0.97479493      -0.39239600      -1.60148283
H       -0.74649976       1.79129621      -1.61865462      -3.16088210      -1.19783183      -0.73379466
H        0.22486532       3.25435766      -1.32621718      -0.10739812      -1.91146379      -0.30365011
11
Properties=species:S:1:pos:R:3:mp2_forces:R:3 R1=H R2=H R3=H R4=NH2 lg=F nu=F mp2_energy=-9075.26793698037 pbc="F F F"
C        0.63538546      -0.03290197       0.00554095       0.72220358       2.29105623       0.47163849
C        0.72171039       1.57668730       0.02635101       2.20510423      -3.64461205      -6.23703199
H        1.79414718       1.75923811      -0.14626717      -0.43294067       0.25163531       0.87987472
F       -1.16305372       0.03593812      -0.06646243      -0.63008025       0.09039532       0.04577382
F        2.40487411      -0.29813594       0.08567744      -0.26346064       0.03892764       0.02503167
H        0.60885922      -0.58579359      -0.91331551       0.04317895       0.15182938      -0.07579930
H        0.55850600      -0.52660660       0.95989555      -0.11060521      -0.07257435      -0.16102742
H        0.30698869       1.90201858       0.88413512      -1.54676092       1.44563768       2.96718089
N        0.07636944       2.11229636      -1.31638444      -2.23818328      -0.74351358       3.13689417
H       -0.13236422       3.10139806      -1.05617914       0.18378669      -0.66426823      -0.51947763
H       -0.89129317       1.61967238      -1.18083996       2.06775752       0.85548665      -0.53305742
11
Properties=species:S:1:pos:R:3:mp2_forces:R:3 R1=H R2=H R3=H R4=NH2 lg=F nu=Cl mp2_energy=-18872.238585584084 pbc="F F F"
C        0.65417374      -0.00415302       0.05859006       1.14617637       2.48649755      -5.67713081
C        0.84430694       1.60416654       0.00490479     -10.07103078      -4.96005240       0.09786635
H        1.75202407       1.87924488      -0.00704023       6.85998601       2.05445384      -0.13453479
F       -1.37699484       0.14733748      -0.08291225       0.71702101       0.06160175       0.16622855
Cl       2.79873146      -0.51102227       0.10830114       0.26143050      -0.15412906       0.20422942
H        0.57007753      -0.58790511      -0.90708206      -0.07903341       1.30707202       1.37313341
H        0.48553853      -0.56210651       0.86895856      -0.79457667      -1.44275116       3.29446463
H        0.27936805       1.82075207       0.93119904       0.58761179       0.64913553       0.01701504
N        0.06223286       2.06772419      -1.17761268       1.09917190      -0.84053029      -0.07916364
H        0.03297400       3.07109608      -1.16885610      -0.50736142       0.26972763       0.01817254
H       -0.85467216       1.58523513      -1.18111103       0.78060469       0.56897460       0.71971931
11
Properties=species:S:1:pos:R:3:mp2_forces:R:3 R1=H R2=H R3=H R4=NH2 lg=Cl nu=F mp2_energy=-18872.781701773765 pbc="F F F"
C        0.67107296      -0.01706714       0.02954822       1.09487762      -0.24154812       1.24147263
C        0.70973171       1.50589773      -0.04320085      -0.50372620      -1.64984403       3.06204765
H        1.77602239       1.58446328      -0.00831508       0.74665860       0.79584788      -0.21028072
Cl      -1.59381230      -0.26376480       0.07911411      -0.38217573      -0.00880449       0.08935341
F        2.64301449      -0.16655007       0.00290174      -0.83685683       0.02099576       0.03237063
H        0.69661919      -0.53029025      -0.91487032      -0.01203226      -0.15023736       0.18116922
H        0.76339466      -0.56521418       1.01016379      -0.23689989       0.88730420      -1.64812206
H        0.24629033       1.96243601       0.87221198       0.48776405      -0.63343544      -0.15820567
N        0.12801601       2.01926360      -1.19191436      -2.81092980       0.11940065      -2.90799024
H        0.21821053       2.99507804      -1.19950149       0.87380589       1.72803769      -0.12049051
H       -0.92327364       1.94702930      -1.21120632       1.57951456      -0.86771674       0.43867567
11
Properties=species:S:1:pos:R:3:mp2_forces:R:3 R1=H R2=H R3=H R4=NH2 lg=Br nu=Br mp2_energy=-143676.31596820432 pbc="F F F"
C        0.72358426      -0.03106656      -0.01430908       0.31716141       3.79326115       6.77138307
C        0.63191136       1.49681677      -0.01662618       3.59891060       0.55386124      -0.81720962
H        1.74550118       1.86536354       0.09793682      -2.09347340      -0.55021714      -0.30144857
Br      -1.74946831      -0.24321502       0.10804941      -0.54775928      -0.15298421      -0.01629753
Br       3.15261576      -0.47610463      -0.17064434      -0.25070923       0.04169717       0.04447167
H        0.64065995      -0.43234065      -0.87135331      -0.49048761      -3.49660146      -5.94886454
H        0.68117394      -0.55503240       0.96471971       0.26688804       0.41876600      -1.36611559
H        0.14113036       1.82875277       0.86304395      -0.83877542       0.24660069       0.96797546
N        0.10930422       2.08699113      -1.27381260      -0.75535349      -5.68977088       0.54162465
H        0.19569318       3.01983763      -1.24410123       0.13382083       4.19137455       0.21420551
H       -0.87204089       1.76981386      -1.32000219       0.65977755       0.64401286      -0.08972451
11
Properties=species:S:1:pos:R:3:mp2_forces:R:3 R1=H R2=H R3=NO2 R4=H lg=Cl nu=Cl mp2_energy=-32722.209432637195 pbc="F F F"
C        0.59726219       0.01399012       0.04471516       0.58521983      -2.15391855      -5.41866001
C        0.64906074       1.44261845       0.04671088       0.38611952       1.62852425      -4.58230841
H        1.58063246       1.91867063      -0.12810506       1.79002068      -0.39343624      -0.27575707
Cl      -1.67241890      -0.06936297      -0.37272425       0.08749547      -0.04143064       0.21036893
Cl       2.87917810      -0.40993401       0.19046038       0.28472934       0.07849826       0.17747835
H        0.72163316      -0.53252705      -0.96799232      -0.35724101       1.39144422       2.22771574
H        0.50816479      -0.56695477       0.86342788      -0.45399923      -1.44505801       2.55117796
H        0.09322187       1.87829054      -0.84058383      -0.03687046      -0.57839591       1.34036352
N        0.24719078       2.06446907       1.18798156      -4.04278440      -1.55476212      10.11216431
O       -0.25234777       3.21485591       1.19666639       1.17417955      -0.93129090      -0.45759029
O        0.23325607       1.30234875       2.33320025       0.58313073       3.99982565      -5.88495304
11
Properties=species:S:1:pos:R:3:mp2_forces:R:3 R1=H R2=H R3=NO2 R4=H lg=Cl nu=Br mp2_energy=-90225.86496110118 pbc="F F F"
C        0.69088528      -0.07224590      -0.14746989      -0.05127881       3.80867942      11.14166807
C        0.63032349       1.45897642      -0.08413661      -0.62093011       0.32258257       1.14482642
H        1.62167435       1.87135463      -0.19610368       0.31899621       0.28308751       0.14618131
Cl      -1.71079036      -0.14978174      -0.35528980      -0.43940085      -0.05592623      -0.17643412
Br       2.96618390      -0.36037063       0.35618202      -0.19316161      -0.06789480      -0.41248489
H        0.65121240      -0.43005987      -1.00847257      -0.07849142      -3.80256231      -7.37903137
H        0.47082708      -0.60396896       0.87973748       0.32545837       1.04508155      -2.95309461
H       -0.03763666       1.98092517      -0.79460344       0.16146306      -0.77400778       0.42927968
N        0.14903931       2.04883147       1.32200530      -0.10270124       1.39252578      -1.62418059
O       -0.18903195       3.25204398       1.25785343       0.43997377      -1.32092626      -0.22066049
O        0.17107616       1.41832516       2.35978944       0.24007267      -0.83063945      -0.09606940
11
Properties=species:S:1:pos:R:3:mp2_forces:R:3 R1=H R2=H R3=NO2 R4=H lg=Br nu=Cl mp2_energy=-90225.82427950748 pbc="F F F"
C        0.70805078       0.04131969      -0.01026775       1.08274621      -3.71999528      -2.30444887
C        0.70822155       1.52723762       0.00375771      -4.96573717      -3.23996442      -2.12961958
H        1.65387456       1.76225785      -0.01359555       5.10075268       2.33046446       0.15851979
Br      -1.79337843      -0.17488745      -0.43309809      -0.56860295       0.10874985      -0.01934237
Cl       2.83172270      -0.34011290       0.20608272       0.03444870       0.09997809       0.07001959
H        0.71451870      -0.59758649      -0.99927964      -0.22931529       2.01178504       2.33396467
H        0.51428381      -0.54601921       0.88531936      -0.25642998       0.61014264      -0.34758342
H        0.11214149       1.95805426      -0.79258878       0.27810378      -0.12068378      -0.38336690
N        0.07398772       1.99485262       1.16067962       1.37445209       0.31690005       6.67519710
O       -0.35758526       3.11596977       1.16416903      -1.80051194       2.86574324      -1.76319460
O        0.26415959       1.47832495       2.30020971      -0.04990615      -1.26311988      -2.29014542
11
Properties=species:S:1:pos:R:3:mp2_forces:R:3 R1=H R2=H R3=NO2 R4=H lg=Br nu=Br mp2_energy=-147729.14612496854 pbc="F F F"
C        0.59684911      -0.05008223      -0.09043814      -0.71856179       2.04965322       3.23213730
C        0.63457776       1.48311709      -0.06913848       5.50907119      -1.42821382       5.55930878
H        1.74010143       1.93216545      -0.05391574      -2.31585633      -1.28403594      -0.49514599
Br      -1.88373745      -0.16080881      -0.30344095       0.51133105       0.03129329      -0.13189313
Br       3.10175546      -0.39769675       0.25155402      -0.08380854      -0.06332130      -0.04489628
H        0.76056511      -0.50057343      -0.99338969       0.16816949      -1.24348921      -2.01161945
H        0.45925396      -0.59826688       0.85522836       0.31842841       0.46144488      -0.95142643
H        0.08917208       1.89775463      -0.76212523      -3.13943326       2.38159274      -3.80111744
N        0.15220837       2.11442436       1.29534310       0.81542794      -7.33915536       0.43595476
O       -0.25532207       3.20240250       1.24665606      -1.44130035       5.15083552      -0.18619247
O        0.15764882       1.37267870       2.30938004       0.37653214       1.28339598      -1.60510965
13
Properties=species:S:1:pos:R:3:mp2_forces:R:3 R1=H R2=H R3=NO2 R4=NO2 lg=F nu=F mp2_energy=-18682.693971708526 pbc="F F F"
C        0.54567319      -0.13092864      -0.05951169       3.03094742       1.85971329       4.93857939
C        0.72557603       1.38382320       0.17293265      -2.60743739      -1.39353345      -2.53820237
H        1.67172422       1.65982138       0.50193088       1.65419887       0.21653810       0.31952212
F       -0.96252327      -0.11968433       0.86351976      -0.66548190      -0.37077935       0.11369983
F        2.02731568      -0.10529257      -0.91565264      -0.28176576      -0.01132629      -0.16478903
H       -0.03297381      -0.55183831      -0.76460418      -1.31657100      -1.07203244      -2.63219769
H        0.99995591      -0.67744012       0.80395235      -0.59831404       0.22506635      -1.33457946
N       -0.22175804       2.05759258       1.01010093       2.77963088      -2.30791847      10.91932065
O       -1.23704698       2.58614561       0.71196840      -2.02504209       1.33072365      -1.41368488
O        0.17531400       1.91328927       2.31197011      -1.62750126       1.12712992      -6.23968273
N        0.43591889       2.15611664      -1.04839347      -3.00903054      -5.11004705      -7.02669990
O        1.11555559       3.13569842      -1.20072453       0.65776553       2.46831776      -0.48580031
O       -0.36646333       1.62427825      -2.01649802       4.00860127       3.03814799       5.54451438
13
Properties=species:S:1:pos:R:3:mp2_forces:R:3 R1=H R2=H R3=NO2 R4=NO2 lg=Cl nu=F mp2_energy=-28479.19614248943 pbc="F F F"
C        0.54936436      -0.17267157       0.02437371      -8.01989979       9.37600183      -9.82604629
C        0.74413033       1.41044678       0.23539732      -4.96083776      -3.21831042      -4.31895198
H        1.66943941       1.59496361       0.50115961       4.40311168       1.08226638       2.18884132
Cl      -1.31880787      -0.58076615       0.85944216      -0.37780139      -0.12957176       0.65075964
F        2.11284503       0.10524911      -0.94146285       0.58859284      -0.07732823      -0.10933446
H        0.08159778      -0.50064344      -0.97899942       1.50382257       0.81440530       2.09517942
H        1.03124987      -0.69566981       0.55211936       6.74877948      -7.65629607       7.55252494
N       -0.31167046       2.13277860       1.03724592       6.56846225      -3.86670419       4.97614102
O       -1.18400911       2.73063578       0.57683874      -4.28799897       2.81579999      -1.92990824
O        0.00613705       1.95791098       2.26204982      -1.45022060       0.91990137      -2.25915601
N        0.67974052       2.08705671      -1.17890365       1.41959410       0.84413300       6.21673739
O        1.18799535       3.17180410      -1.19465531       2.48126220       2.40641242      -0.00650040
O       -0.12401986       1.74936032      -1.91897647      -4.61686660      -3.31070961      -5.23028634
13
Properties=species:S:1:pos:R:3:mp2_forces:R:3 R1=H R2=H R3=NO2 R4=NO2 lg=Cl nu=Cl mp2_energy=-38278.16900111498 pbc="F F F"
C        0.65435613      -0.08644848       0.08759549       1.72500509       0.41822300      -2.77054774
C        0.65286345       1.42714558      -0.08494296       1.21149620       0.43177794      -1.81341484
H        1.65440020       1.79220128      -0.43882086      -0.94265706      -0.52274023       0.64629087
Cl      -1.61941137      -0.39142473      -0.52309193      -0.85001667      -0.08187371      -0.17652414
Cl       2.64116809      -0.25213824       0.78238556      -0.18963488       0.04755937      -0.00307097
H        0.82377737      -0.68609816      -0.85668687      -0.37622277       0.95616118       1.65855838
H        0.22306048      -0.45170060       0.95718373      -0.55196951      -0.75600401       1.04633145
N        0.35638403       2.12548871       1.16451580       5.94412520       5.32293207      -1.37073907
O        1.01790450       3.28119504       1.25628328      -3.55151753      -4.64902436      -0.00862974
O       -0.18646047       1.51314378       2.01520191      -2.07896102      -0.61221800       2.97429553
N       -0.24443676       2.08141102      -1.11774004       1.16139619      -2.43765022      -2.78531035
O       -1.11838115       2.81931561      -0.74365517      -0.87557460       0.92764843       0.08468662
O        0.05341619       1.76860502      -2.30652725      -0.62546865       0.95520854       2.51807400
13
Properties=species:S:1:pos:R:3:mp2_forces:R:3 R1=H R2=H R3=NO2 R4=NO2 lg=Cl nu=Br mp2_energy=-95780.35223033723 pbc="F F F"
C        0.48486452      -0.05335632       0.03151745      -1.04763643      -1.39142048      -1.82894376
C        0.73204824       1.41205824       0.05549254      -0.83308832       0.28465495       1.28715553
H        1.72655356       1.75517799       0.37980765      -0.48232642      -0.40746787      -0.25894842
Cl      -1.68600782      -0.42454833       0.50639464       0.07906220       0.37468009       0.20657263
Br       2.77780019      -0.39982741      -0.84735828       0.44924285      -0.08383505      -0.18391819
H        0.13766637      -0.51681093      -0.93536288       1.05791120       0.73250910       1.47835655
H        0.74646614      -0.67084766       0.87569633       0.20351160       0.16309757      -0.17486373
N       -0.22297717       2.03846595       1.14485282      -0.38654734       1.12623811      -1.74050486
O       -1.13060884       2.78441408       0.76263085       0.59459849      -0.54478009       0.09259691
O        0.05712966       1.79409457       2.29759354       0.37377075      -0.41836014       0.57458406