11
Properties=species:S:1:pos:R:3:mp2_forces:R:3 R1=H R2=H R3=H R4=NO2 lg=F nu=Cl mp2_energy=-22926.24880330565 pbc="F F F"
C        0.86997698      -0.16108259       0.02976555       0.00596739       0.00109288       0.00625976
C        0.74329526       1.53964582      -0.07467952      -0.00440673      -0.00457567      -0.00579587
H        1.73141430       1.97856354      -0.12738437      -0.00082277       0.00190064       0.00004509
F       -1.32839425       0.23433161       0.11292271      -0.00112390      -0.00166680       0.00113491
Cl       2.75635358      -0.55306121      -0.01939969      -0.00415086       0.00094043      -0.00133035
H        0.42633901      -0.55743038      -0.91030352       0.00746854       0.00124709      -0.00297724
H        0.49299721      -0.47875435       0.97793369      -0.00813530       0.00060103      -0.00115933
H        0.22747468       1.83873572       0.87793540       0.00415888      -0.00080311       0.00078176
N       -0.03570829       1.94764252      -1.26913186       0.00502077       0.00962325       0.00063825
O       -0.57723405       3.00490479      -1.07772797       0.00189070      -0.00574949      -0.00112830
O        0.07519469       1.41477492      -2.30187994      -0.00586671      -0.00261026       0.00353132
11
Properties=species:S:1:pos:R:3:mp2_forces:R:3 R1=H R2=H R3=H R4=NO2 lg=Cl nu=Cl mp2_energy=-32723.706860611775 pbc="F F F"
C        0.62190932       0.03256951      -0.07132824      -0.00075705       0.00132483      -0.00116196
C        0.68561911       1.53408393      -0.06342461      -0.00407094       0.00263081      -0.00034259
H        1.74599635       1.78319446       0.10060785       0.00089997      -0.00312662      -0.00025520
Cl      -1.64130261      -0.12140428       0.39759177       0.00084610      -0.00149788      -0.00049528
Cl       2.89453554      -0.41842775      -0.33400110      -0.00133441      -0.00174740       0.00052927
H        0.44779949      -0.54816492      -0.77907473       0.00081564       0.00203702      -0.00044505
H        0.69023016      -0.59358467       1.00085798       0.00207601       0.00319619       0.00061745
H       -0.03500501       1.87734560       0.80519364       0.00103068      -0.00135984      -0.00115481
N        0.16228400       2.11884183      -1.22830895      -0.00161317      -0.00043878      -0.00064438
O       -0.09835891       3.21536693      -1.29892053       0.00152045      -0.00390317      -0.00052349
O        0.12887965       1.33557782      -2.29152358       0.00058673       0.00288484       0.00387603
11
Properties=species:S:1:pos:R:3:mp2_forces:R:3 R1=H R2=H R3=H R4=NO2 lg=Cl nu=Br mp2_energy=-90226.86838117501 pbc="F F F"
C        0.49944058      -0.06183733       0.02554613      -0.01320795       0.00153102       0.00399229
C        0.67650773       1.49657370       0.13644059       0.00227156      -0.00088887       0.00393239
H        1.61233132       1.85040282       0.11383736      -0.00081004      -0.00003632      -0.00533396
Cl      -1.76585046      -0.06727499       0.36233528       0.00182660       0.00256304      -0.00551578
Br       2.96519954      -0.46348899      -0.36266855       0.00202751       0.00014870      -0.00005957
H        0.42129169      -0.57012372      -0.85852395       0.00433823       0.00043629      -0.00058034
H        0.70755385      -0.55040192       0.98499116       0.00274692       0.00039704      -0.00067027
H       -0.07250780       1.97359040       0.73056588       0.00250714      -0.00044388       0.00099785
N        0.14059117       2.12174150      -1.34029276       0.00341392      -0.00170520       0.00014066
O       -0.11001186       3.21557949      -1.25523109      -0.00229611      -0.00509278      -0.00054180
O        0.15358838       1.31018290      -2.25817518      -0.00281777       0.00309097       0.00363854
11
Properties=species:S:1:pos:R:3:mp2_forces:R:3 R1=H R2=H R3=H R4=NO2 lg=Br nu=Cl mp2_energy=-90226.87240177633 pbc="F F F"
C        0.61264165      -0.07442790       0.06350347      -0.00378899       0.00356845       0.00417677
C        0.62557400       1.50193635      -0.04116419       0.01338335      -0.02964267       0.00334999
H        1.76085834       1.82412817       0.09179424      -0.00746946       0.01915916       0.00096137
Br      -1.78924305      -0.12522821       0.42766053      -0.00432451       0.00788765       0.00029359
Cl       2.93203509      -0.42527773      -0.18759745      -0.00045460      -0.00017434      -0.00261454
H        0.52584416      -0.65225642      -0.92891355       0.00076576       0.00160985       0.00023255
H        0.63488123      -0.48482780       0.88906906       0.00112577       0.00016850      -0.00142995
H        0.12827857       1.92524784       0.77915082       0.00176046       0.00194260      -0.00109634
N        0.11036048       1.96162268      -1.22185576      -0.00245310      -0.01566254      -0.00785441
O       -0.21206803       3.29231274      -1.26625377      -0.00245826      -0.00339234      -0.00009598
O        0.15668640       1.38567555      -2.24416706       0.00391358       0.01453567       0.00407695
11
Properties=species:S:1:pos:R:3:mp2_forces:R:3 R1=H R2=H R3=H R4=NO2 lg=Br nu=Br mp2_energy=-147730.04390931383 pbc="F F F"
C        0.68582813      -0.03431845       0.12379900       0.00941491       0.00305621       0.00044744
C        0.72797941       1.47196139      -0.05205683       0.00279948      -0.00690774       0.00010363
H        1.71390138       1.82202431       0.03816014      -0.00297901       0.00365939       0.00274023
Br      -1.84406994      -0.16975261       0.46273362      -0.00237052      -0.00121545       0.00152273
Br       3.04145177      -0.41885934      -0.21259247      -0.00223576       0.00027847      -0.00203461
H        0.45754241      -0.53344532      -0.84056295      -0.00355840       0.00033859       0.00188806
H        0.70753703      -0.47561067       0.95493837      -0.00193593       0.00014273      -0.00027197
H        0.16066522       1.85449490       0.86448430      -0.00093423      -0.00092815      -0.00194287
N        0.05944115       2.14439483      -1.23538546      -0.00278980      -0.00232845      -0.00806601
O       -0.34944406       3.14702254      -1.24093687       0.00336597      -0.00169363      -0.00086161
O        0.23337620       1.34430190      -2.31701106       0.00122329       0.00559802       0.00647498
10
Properties=species:S:1:pos:R:3:mp2_forces:R:3 R1=H R2=H R3=H R4=CN lg=Cl nu=Br mp2_energy=-87176.97690215924 pbc="F F F"
C        0.59876564      -0.06270936       0.00721615       0.00554049       0.00167166       0.01106250
C        0.58990161       1.55574481       0.10159273      -0.00568938       0.01985859      -0.02021768
H        1.62314528       1.86959484       0.31783010       0.00080433      -0.01524144       0.01182358
Cl      -1.65116182      -0.18124046       0.47162542       0.00284152      -0.00160687      -0.00093912
Br       2.95292775      -0.25353257      -0.43610850      -0.00213240       0.00003399      -0.00417959
H        0.37207326      -0.45305372      -0.85947448      -0.00074622       0.00017617       0.00052357
H        0.73189453      -0.55893716       0.82715709       0.00014470       0.00063262      -0.00042098
H       -0.20051259       1.77575210       0.68607509      -0.00024329      -0.00183156      -0.00073962
C        0.25040405       2.10084523      -1.26204266      -0.00126593      -0.00330379       0.00241327
N        0.02546782       2.57709018      -2.31385073       0.00074621      -0.00038938       0.00067408
10
Properties=species:S:1:pos:R:3:mp2_forces:R:3 R1=H R2=H R3=H R4=CN lg=Br nu=Cl mp2_energy=-87176.97652437275 pbc="F F F"
C        0.66206348       0.09420588      -0.02498824      -0.00338201       0.00795058      -0.02581288
C        0.59408178       1.45675544       0.05189069      -0.02134468       0.03388509      -0.00935967
H        1.55907553       1.89346834       0.35657704       0.00771294      -0.02651780       0.00160944
Br      -1.88035249      -0.28477206       0.48090690       0.01298209      -0.00499535       0.00945528
Cl       2.87693218      -0.32382080      -0.47498283       0.00490821      -0.00360719       0.01448512
H        0.44056640      -0.59540792      -0.83479518       0.00393685      -0.00053941      -0.00079670
H        0.74737448      -0.45553780       0.87885752      -0.00609693       0.00074619       0.00144191
H       -0.17790190       1.88781828       0.71162369       0.00660180       0.00058873       0.00460768
C        0.42774169       2.02282396      -1.28659580      -0.00602054      -0.00837984       0.00251309
N        0.13474279       2.45611183      -2.29880646       0.00070227       0.00086901       0.00185673
10
Properties=species:S:1:pos:R:3:mp2_forces:R:3 R1=H R2=H R3=H R4=CN lg=Br nu=Br mp2_energy=-144680.15013455247 pbc="F F F"
C        0.64572141       0.02350362       0.00253462       0.01926502       0.00202284       0.01065892
C        0.60852124       1.53571611      -0.02795334      -0.01270005       0.02392280      -0.02362694
H        1.57870588       1.77386524       0.38366240       0.00382573      -0.01835961       0.00533846
Br      -1.84329527      -0.42412224       0.49155674       0.00505112       0.00244833      -0.00676035
Br       2.98361218      -0.23394678      -0.54304125      -0.00332202       0.00017887      -0.00063800
H        0.43468984      -0.58993072      -0.89817169       0.00078761      -0.00041524       0.00025126
H        0.82702957      -0.58444922       0.95372753      -0.00849616       0.00012801       0.00118238
H       -0.18407902       1.94404397       0.66117061       0.00493133      -0.00157302       0.00581798
C        0.37084968       2.08300694      -1.21942001      -0.00894750      -0.00890604       0.00618622
N        0.20085592       2.55124996      -2.32492884      -0.00039502       0.00055307       0.00159007
12
Properties=species:S:1:pos:R:3:mp2_forces:R:3 R1=H R2=H R3=H R4=CH3 lg=F nu=F mp2_energy=-8639.847828373431 pbc="F F F"
C        0.59986663       0.05341074       0.06350430      -0.00596566       0.00040161       0.00665624
C        0.65180015       1.49837103       0.03015138       0.00011636      -0.00130890      -0.00580613
H        1.64384234       1.86622780       0.19831229      -0.00153784      -0.00075253       0.00061559
F       -1.16488856      -0.05762613       0.68408943       0.00256022       0.00069083      -0.00039588
F        2.30848292      -0.23203827      -0.58937643       0.00098059       0.00012580       0.00111095
H        0.23220770      -0.58875584      -0.77652612      -0.00021561       0.00264624      -0.00064067
H        0.82745753      -0.60918584       0.92252691       0.00218526      -0.00060837      -0.00318757
H       -0.02460640       1.77009003       0.87427692       0.00069003       0.00045513      -0.00116873
C        0.16801297       2.15093192      -1.24939410       0.00071169      -0.00026659       0.00120566
H        0.77642273       1.58694973      -2.12423186      -0.00108516       0.00117311       0.00029275
H       -0.88704979       1.71404030      -1.42483582       0.00182468      -0.00113059      -0.00020335
H        0.19999388       3.12606157      -1.41328134      -0.00026455      -0.00142574       0.00152114
12
Properties=species:S:1:pos:R:3:mp2_forces:R:3 R1=H R2=H R3=H R4=CH3 lg=Cl nu=F mp2_energy=-18437.1530872683 pbc="F F F"
C        0.46585459      -0.00355103       0.10377830      -0.01793599       0.04370679      -0.02530586
C        0.54860472       1.54837602       0.04520918      -0.00937179       0.02416822      -0.01289765
H        1.53332505       1.74889210       0.35098992       0.00186246      -0.01729126       0.00304624
Cl      -1.49601978      -0.42043061       0.84190552       0.00968716      -0.02032422       0.00848060
F        2.25895854      -0.01807262      -0.84725954       0.00418704      -0.01706552       0.01034652
H        0.37472980      -0.49808087      -0.94335785       0.00266375       0.00034853      -0.00365939
H        1.06496677      -0.60258457       0.82567988       0.00490458      -0.00415355       0.00424758
H       -0.17722273       1.86985706       0.82417094       0.00085650       0.00060583      -0.00217915
C        0.27370171       2.01060435      -1.33298726       0.00238063      -0.00332513       0.01087123
H        0.94986692       1.62867563      -2.09335198      -0.00102315      -0.00069183       0.00416971
H       -0.67962494       1.76672591      -1.73367882      -0.00096469      -0.00407068       0.00578110
H        0.22636403       3.09276747      -1.34502956       0.00275351      -0.00190719      -0.00290094
12
Properties=species:S:1:pos:R:3:mp2_forces:R:3 R1=H R2=H R3=H R4=CH3 lg=Br nu=Br mp2_energy=-143241.14333488845 pbc="F F F"
C        0.61010121       0.18513869      -0.01180362       0.01568835      -0.00050280      -0.00415071
C        0.62531741       1.52970991       0.04478980      -0.00478241      -0.00244547       0.00184520
H        1.55439404       1.85559282       0.37171100       0.00112458      -0.00018867      -0.00831081
Br      -1.80791892      -0.29344877       0.64006718      -0.00830115      -0.00059982       0.00149034
Br       2.91838476      -0.33559671      -0.61669000      -0.00205979       0.00148231       0.00214461
H        0.30787825      -0.50779294      -0.78084538      -0.00142822       0.00080471       0.00134076
H        0.80168605      -0.51698405       0.91014049      -0.00759287       0.00129467       0.00128040
H       -0.16703038       1.92455250       0.76260649       0.00549973       0.00130039       0.00296574
C        0.18433611       2.09059909      -1.37073132       0.00407765      -0.00471653       0.00049510
H        0.93526419       1.73950740      -2.00783219      -0.00004116       0.00595671      -0.00062272
H       -0.74649976       1.79129621      -1.61865462       0.00325371      -0.00172462      -0.00181606
H        0.22486532       3.25435766      -1.32621718      -0.00543842      -0.00066088       0.00333816
11
Properties=species:S:1:pos:R:3:mp2_forces:R:3 R1=H R2=H R3=H R4=NH2 lg=F nu=F mp2_energy=-9075.958164717254 pbc="F F F"
C        0.63538546      -0.03290197       0.00554095      -0.00043259       0.00204945       0.00561450
C        0.72171039       1.57668730       0.02635101       0.00085641       0.00078694      -0.01514705
H        1.79414718       1.75923811      -0.14626717      -0.00147869      -0.00069810       0.00367908
F       -1.16305372       0.03593812      -0.06646243       0.00302825      -0.00175298      -0.00738405
F        2.40487411      -0.29813594       0.08567744      -0.00373801       0.00340164       0.00046187
H        0.60885922      -0.58579359      -0.91331551       0.00273432       0.00047515       0.00146881
H        0.55850600      -0.52660660       0.95989555      -0.00084369      -0.00041198       0.00076909
H        0.30698869       1.90201858       0.88413512       0.00498835      -0.00261615       0.00274329
N        0.07636944       2.11229636      -1.31638444      -0.02155092       0.00012377       0.00798748
H       -0.13236422       3.10139806      -1.05617914       0.01480061       0.00083306      -0.00313106
H       -0.89129317       1.61967238      -1.18083996       0.00163596      -0.00219080       0.00293803
11
Properties=species:S:1:pos:R:3:mp2_forces:R:3 R1=H R2=H R3=H R4=NH2 lg=F nu=Cl mp2_energy=-18873.341947441913 pbc="F F F"
C        0.65417374      -0.00415302       0.05859006       0.00262850      -0.00120838       0.01460632
C        0.84430694       1.60416654       0.00490479      -0.01476308       0.00149686      -0.00328302
H        1.75202407       1.87924488      -0.00704023      -0.00090299      -0.00160349      -0.00567993
F       -1.37699484       0.14733748      -0.08291225       0.00436391      -0.00333604      -0.01090419
Cl       2.79873146      -0.51102227       0.10830114       0.00250068      -0.00097517      -0.00281959
H        0.57007753      -0.58790511      -0.90708206      -0.00051281       0.00235430      -0.00040313
H        0.48553853      -0.56210651       0.86895856      -0.00331972       0.00098308       0.00021548
H        0.27936805       1.82075207       0.93119904       0.00897946       0.00175320       0.00328247
N        0.06223286       2.06772419      -1.17761268      -0.00521980      -0.00073715       0.00603241
H        0.03297400       3.07109608      -1.16885610       0.00478720      -0.00035559      -0.00090268
H       -0.85467216       1.58523513      -1.18111103       0.00145864       0.00162837      -0.00014414
11
Properties=species:S:1:pos:R:3:mp2_forces:R:3 R1=H R2=H R3=H R4=NH2 lg=Cl nu=F mp2_energy=-18873.09664893645 pbc="F F F"
C        0.67107296      -0.01706714       0.02954822      -0.00526464       0.01893843       0.01285298
C        0.70973171       1.50589773      -0.04320085      -0.00240909      -0.01388854      -0.00116153
H        1.77602239       1.58446328      -0.00831508      -0.00207880       0.00373984       0.00130977
Cl      -1.59381230      -0.26376480       0.07911411      -0.00525182      -0.00763812      -0.00440591
F        2.64301449      -0.16655007       0.00290174      -0.00019535      -0.00317269      -0.01008379
H        0.69661919      -0.53029025      -0.91487032       0.00677209      -0.00323210       0.00312581
H        0.76339466      -0.56521418       1.01016379      -0.00263882      -0.00067473      -0.00020662
H        0.24629033       1.96243601       0.87221198       0.00577554       0.00330440       0.00059241
N        0.12801601       2.01926360      -1.19191436       0.01250212      -0.00164588      -0.00723488
H        0.21821053       2.99507804      -1.19950149      -0.00744858       0.00123354       0.00323061
H       -0.92327364       1.94702930      -1.21120632       0.00023735       0.00303585       0.00198114
11
Properties=species:S:1:pos:R:3:mp2_forces:R:3 R1=H R2=H R3=H R4=NH2 lg=Br nu=Br mp2_energy=-143677.14561414524 pbc="F F F"
C        0.72358426      -0.03106656      -0.01430908       0.00550706       0.00202246      -0.01033352
C        0.63191136       1.49681677      -0.01662618       0.00473210      -0.00429358       0.00432025
H        1.74550118       1.86536354       0.09793682      -0.00290450       0.00493842      -0.00427324
Br      -1.74946831      -0.24321502       0.10804941      -0.00118007       0.00438739       0.00023396
Br       3.15261576      -0.47610463      -0.17064434      -0.00203241       0.00040669       0.00541928
H        0.64065995      -0.43234065      -0.87135331       0.00229156       0.00069519       0.00019052
H        0.68117394      -0.55503240       0.96471971      -0.00459314       0.00030985      -0.00076633
H        0.14113036       1.82875277       0.86304395       0.00080420      -0.00214339       0.00017880
N        0.10930422       2.08699113      -1.27381260       0.00353619      -0.01072741      -0.00561975
H        0.19569318       3.01983763      -1.24410123      -0.00526878       0.00027229       0.00197774
H       -0.87204089       1.76981386      -1.32000219      -0.00089222       0.00413208       0.00867229
11
Properties=species:S:1:pos:R:3:mp2_forces:R:3 R1=H R2=H R3=NO2 R4=H lg=Cl nu=Cl mp2_energy=-32723.70662237718 pbc="F F F"
C        0.59726219       0.01399012       0.04471516      -0.02127536       0.01028829      -0.03602740
C        0.64906074       1.44261845       0.04671088       0.00715093       0.00097324      -0.00832393
H        1.58063246       1.91867063      -0.12810506      -0.00037111      -0.00164743       0.00611350
Cl      -1.67241890      -0.06936297      -0.37272425       0.00181263      -0.00312155       0.01825938
Cl       2.87917810      -0.40993401       0.19046038      -0.00082717      -0.00141206       0.01505774
H        0.72163316      -0.53252705      -0.96799232       0.00667506      -0.00037980       0.00207802
H        0.50816479      -0.56695477       0.86342788       0.00708999      -0.00082407       0.00055582
H        0.09322187       1.87829054      -0.84058383      -0.00044509      -0.00039618       0.00179448
N        0.24719078       2.06446907       1.18798156       0.00411911      -0.00535476       0.00071435
O       -0.25234777       3.21485591       1.19666639       0.00029324      -0.00292935       0.00308773
O        0.23325607       1.30234875       2.33320025      -0.00422224       0.00480367      -0.00330970
11
Properties=species:S:1:pos:R:3:mp2_forces:R:3 R1=H R2=H R3=NO2 R4=H lg=Cl nu=Br mp2_energy=-90226.86796497267 pbc="F F F"
C        0.69088528      -0.07224590      -0.14746989       0.01131894      -0.00020915       0.00605585
C        0.63032349       1.45897642      -0.08413661      -0.00471212       0.01045924      -0.00919049
H        1.62167435       1.87135463      -0.19610368       0.00335558      -0.01003758       0.00616923
Cl      -1.71079036      -0.14978174      -0.35528980       0.00100845      -0.00203998      -0.00075349
Br       2.96618390      -0.36037063       0.35618202      -0.00160852       0.00060993      -0.00156796
H        0.65121240      -0.43005987      -1.00847257      -0.00589182       0.00133207      -0.00061389
H        0.47082708      -0.60396896       0.87973748      -0.00313624      -0.00054309      -0.00085653
H       -0.03763666       1.98092517      -0.79460344       0.00076167       0.00097779       0.00226599
N        0.14903931       2.04883147       1.32200530      -0.00208033       0.00050260       0.00078052
O       -0.18903195       3.25204398       1.25785343      -0.00306399      -0.00436038       0.00014417
O        0.17107616       1.41832516       2.35978944       0.00404839       0.00330855      -0.00243339
11
Properties=species:S:1:pos:R:3:mp2_forces:R:3 R1=H R2=H R3=NO2 R4=H lg=Br nu=Cl mp2_energy=-90226.8722054339 pbc="F F F"
C        0.70805078       0.04131969      -0.01026775       0.02708514       0.00771472      -0.02445743
C        0.70822155       1.52723762       0.00375771       0.00231164      -0.00544915      -0.00285164
H        1.65387456       1.76225785      -0.01359555      -0.00274937       0.00439619      -0.00245415
Br      -1.79337843      -0.17488745      -0.43309809      -0.00570570      -0.00033599       0.01087437
Cl       2.83172270      -0.34011290       0.20608272      -0.00579889      -0.00150007       0.01387658
H        0.71451870      -0.59758649      -0.99927964      -0.00458433       0.00084751       0.00023569
H        0.51428381      -0.54601921       0.88531936      -0.00727721      -0.00023883      -0.00154422
H        0.11214149       1.95805426      -0.79258878      -0.00466721      -0.00249256       0.00363317
N        0.07398772       1.99485262       1.16067962       0.00459848      -0.00444656       0.00556316
O       -0.35758526       3.11596977       1.16416903       0.00172452      -0.00340857       0.00122176
O        0.26415959       1.47832495       2.30020971      -0.00493709       0.00491332      -0.00409729
11
Properties=species:S:1:pos:R:3:mp2_forces:R:3 R1=H R2=H R3=NO2 R4=H lg=Br nu=Br mp2_energy=-147730.04392480387 pbc="F F F"
C        0.59684911      -0.05008223      -0.09043814      -0.01189561       0.00355901       0.00817731
C        0.63457776       1.48311709      -0.06913848       0.00936285      -0.01245370      -0.00920011
H        1.74010143       1.93216545      -0.05391574      -0.00400990       0.00645235       0.00315946
Br      -1.88373745      -0.16080881      -0.30344095       0.00463647       0.00288537       0.00338478
Br       3.10175546      -0.39769675       0.25155402       0.00188749       0.00032112      -0.00461784
H        0.76056511      -0.50057343      -0.99338969       0.00398055       0.00095285       0.00099390
H        0.45925396      -0.59826688       0.85522836       0.00007080       0.00081517      -0.00070593
H        0.08917208       1.89775463      -0.76212523      -0.00008170      -0.00065041       0.00041190
N        0.15220837       2.11442436       1.29534310      -0.00215906       0.00969928       0.00099315
O       -0.25532207       3.20240250       1.24665606       0.00451804      -0.00791107       0.00022542
O        0.15764882       1.37267870       2.30938004      -0.00630989      -0.00366998      -0.00282204
13
Properties=species:S:1:pos:R:3:mp2_forces:R:3 R1=H R2=H R3=NO2 R4=NO2 lg=F nu=F mp2_energy=-18684.70162290472 pbc="F F F"
C        0.54567319      -0.13092864      -0.05951169      -0.00757308       0.00213246       0.01085175
C        0.72557603       1.38382320       0.17293265       0.00065270      -0.00707674       0.00126717
H        1.67172422       1.65982138       0.50193088      -0.00046609      -0.00060650      -0.00149935
F       -0.96252327      -0.11968433       0.86351976       0.00535558       0.00110487       0.00197869
F        2.02731568      -0.10529257      -0.91565264      -0.00147128       0.00211736      -0.00205851
H       -0.03297381      -0.55183831      -0.76460418       0.00423846       0.00394143      -0.00360306
H        0.99995591      -0.67744012       0.80395235      -0.00274012      -0.00194339      -0.00260657
N       -0.22175804       2.05759258       1.01010093       0.00122106      -0.00011956       0.00237372
O       -1.23704698       2.58614561       0.71196840       0.00139792      -0.00397526       0.00054842
O        0.17531400       1.91328927       2.31197011      -0.00200377       0.00306693      -0.00468675
N        0.43591889       2.15611664      -1.04839347      -0.00162944       0.00246530      -0.00638275
O        1.11555559       3.13569842      -1.20072453      -0.00248141      -0.00320119       0.00165800
O       -0.36646333       1.62427825      -2.01649802       0.00549947       0.00209429       0.00215923
13
Properties=species:S:1:pos:R:3:mp2_forces:R:3 R1=H R2=H R3=NO2 R4=NO2 lg=Cl nu=F mp2_energy=-28481.724356042163 pbc="F F F"
C        0.54936436      -0.17267157       0.02437371      -0.00620921      -0.00320658       0.00947426
C        0.74413033       1.41044678       0.23539732      -0.00163392       0.00156488      -0.00108836
H        1.66943941       1.59496361       0.50115961       0.00012214       0.00003600      -0.00351026
Cl      -1.31880787      -0.58076615       0.85944216       0.00361602       0.00234791      -0.00321325
F        2.11284503       0.10524911      -0.94146285      -0.00104326       0.00025925       0.00045476
H        0.08159778      -0.50064344      -0.97899942       0.00278960       0.00288116      -0.00112709
H        1.03124987      -0.69566981       0.55211936       0.00174575       0.00220936      -0.00132541
N       -0.31167046       2.13277860       1.03724592       0.00021743      -0.00353220       0.00109914
O       -1.18400911       2.73063578       0.57683874       0.00385504       0.00096819       0.00153876
O        0.00613705       1.95791098       2.26204982      -0.00324655      -0.00169382      -0.00328424
N        0.67974052       2.08705671      -1.17890365       0.00165907       0.00145791      -0.00129649
O        1.18799535       3.17180410      -1.19465531      -0.00305833      -0.00450432      -0.00070097
O       -0.12401986       1.74936032      -1.91897647       0.00118623       0.00121225       0.00297914
13
Properties=species:S:1:pos:R:3:mp2_forces:R:3 R1=H R2=H R3=NO2 R4=NO2 lg=Cl nu=Cl mp2_energy=-38278.94536089839 pbc="F F F"
C        0.65435613      -0.08644848       0.08759549       0.00523069      -0.00086992      -0.00805583
C        0.65286345       1.42714558      -0.08494296      -0.00217754       0.00454062       0.00990136
H        1.65440020       1.79220128      -0.43882086       0.00019274      -0.00462662       0.00130728
Cl      -1.61941137      -0.39142473      -0.52309193      -0.00046595       0.00071409       0.00175081
Cl       2.64116809      -0.25213824       0.78238556      -0.00105670       0.00116684       0.00074196
H        0.82377737      -0.68609816      -0.85668687      -0.00439350       0.00138407      -0.00095257
H        0.22306048      -0.45170060       0.95718373       0.00178296       0.00002385       0.00013648
N        0.35638403       2.12548871       1.16451580      -0.00257103       0.00220167       0.00010314
O        1.01790450       3.28119504       1.25628328      -0.00353634      -0.00346699      -0.00078510
O       -0.18646047       1.51314378       2.01520191       0.00375723       0.00152037      -0.00239457
N       -0.24443676       2.08141102      -1.11774004       0.00148909       0.00043732      -0.00498859
O       -1.11838115       2.81931561      -0.74365517       0.00350123      -0.00250695      -0.00111071
O        0.05341619       1.76860502      -2.30652725      -0.00175287      -0.00051835       0.00434635
13
Properties=species:S:1:pos:R:3:mp2_forces:R:3 R1=H R2=H R3=NO2 R4=NO2 lg=Cl nu=Br mp2_energy=-95782.095164322 pbc="F F F"
C        0.48486452      -0.05335632       0.03151745       0.00537296       0.00713685      -0.00082283
C        0.73204824       1.41205824       0.05549254      -0.00045600       0.00447210      -0.00681583
H        1.72655356       1.75517799       0.37980765       0.00088611      -0.00621713      -0.00004426
Cl      -1.68600782      -0.42454833       0.50639464       0.00132771      -0.00425663       0.00379985
Br       2.77780019      -0.39982741      -0.84735828      -0.00003534      -0.00183363       0.00311448
H        0.13766637      -0.51681093      -0.93536288      -0.00030256       0.00148942      -0.00081231
H        0.74646614      -0.67084766       0.87569633      -0.00552764       0.00005180      -0.00070458
N       -0.22297717       2.03846595       1.14485282      -0.00219767       0.00384406       0.00307486
O       -1.13060884       2.78441408       0.76263085       0.00334936      -0.00385469       0.00147998
O        0.05712966       1.79409457       2.29759354      -0.00099540      -0.00028292      -0.00565442