9
Lattice="1.0 0.0 0.0 0.0 1.0 0.0 0.0 0.0 1.0" Properties=species:S:1:pos:R:3:forces:R:3 R1=H R2=H R3=CH3 R4=CH3 leaving_group=Cl nucleophile=Cl rxn=sn2 config=rcc label=H_H_CH3_CH3_Cl_Cl_sn2_rcc conformation=0 reactant_id=H_H_CH3_CH3_Cl_none_-_r product_id=H_H_CH3_CH3_none_Cl_sn2_pc mp2_author_energy=-29302.391748605172 mp2_my_energy=0 hash=59123 address=T id=71 cell="(1,0,0), (0,1,0), (0,0,1)" energy=-17372.33216497299 free_energy=-17372.33216497299 pbc="F F F"
C        0.09142836      -0.02057665       0.00018700      -0.00383810       0.00153641      -0.00068481
C        1.58722280       0.14924827      -0.00111085       0.00020147      -0.00237977      -0.00061630
H        2.03195864      -0.84661872      -0.00635447      -0.00043287       0.00066109       0.00360198
F       -0.53491861       1.24651010      -0.01033438       0.00123778      -0.00105707       0.00337249
Cl       0.88543890      -3.39675651       0.00603569      -0.00050197      -0.00038193      -0.00016305
H       -0.24798218      -0.56713807      -0.87777751      -0.00113173       0.00148985       0.00279851
H       -0.24989953      -0.55273097       0.88632969       0.00349898      -0.00246302      -0.00540624
H        1.91405155       0.69490750       0.88785996      -0.00213133       0.00382493      -0.00088743
H        1.90859158       0.70242064      -0.88742268       0.00309776      -0.00123049      -0.00201515
9
Lattice="1.0 0.0 0.0 0.0 1.0 0.0 0.0 0.0 1.0" Properties=species:S:1:pos:R:3:forces:R:3 R1=H R2=H R3=CH3 R4=CH3 leaving_group=Cl nucleophile=Cl rxn=sn2 config=rcc label=H_H_CH3_CH3_Cl_Cl_sn2_rcc conformation=0 reactant_id=H_H_CH3_CH3_Cl_none_-_r product_id=H_H_CH3_CH3_none_Cl_sn2_pc mp2_author_energy=-29302.391748605172 mp2_my_energy=0 hash=59123 address=T id=71 cell="(1,0,0), (0,1,0), (0,0,1)" energy=-17372.327927572722 free_energy=-17372.327927572722 dipole="-0.6272088763524244 2.7491068303345783 0.2061557993370401" pbc="F F F"
C        0.09809351      -0.02991333       0.03324768      -0.02439359       0.01096203      -0.00252411
C        1.59141517       0.15721272       0.02205059       0.00243892      -0.00104693       0.00011785
H        2.05021756      -0.82562096       0.12929681       0.00594291      -0.02062725      -0.01462412
F       -0.54179615       1.22504096      -0.08162772       0.00433109       0.01034727      -0.00120274
Cl       0.84162156      -3.38898143      -0.19392360       0.00864520      -0.00498443       0.01240193
H       -0.23152089      -0.65557420      -0.79211199      -0.00007229      -0.00567379      -0.01356091
H       -0.24091827      -0.48578549       0.96247473      -0.00291769      -0.00409397       0.00968191
H        1.90392250       0.81138681       0.83987571       0.00597265      -0.00059772       0.02227152
H        1.91485651       0.60150051      -0.92186977       0.00005279       0.01571479      -0.01256132
9
Lattice="1.0 0.0 0.0 0.0 1.0 0.0 0.0 0.0 1.0" Properties=species:S:1:pos:R:3:forces:R:3 R1=H R2=H R3=CH3 R4=CH3 leaving_group=Cl nucleophile=Cl rxn=sn2 config=rcc label=H_H_CH3_CH3_Cl_Cl_sn2_rcc conformation=0 reactant_id=H_H_CH3_CH3_Cl_none_-_r product_id=H_H_CH3_CH3_none_Cl_sn2_pc mp2_author_energy=-29302.391748605172 mp2_my_energy=0 hash=59123 address=T id=71 cell="(1,0,0), (0,1,0), (0,0,1)" energy=-17372.312067491017 free_energy=-17372.312067491017 dipole="-0.6279100361564214 2.7027614902333967 0.3661117823058041" pbc="F F F"
C        0.09670478      -0.03587773       0.05903778      -0.02345008       0.00933225      -0.00353783
C        1.59097721       0.14945519       0.03828788       0.00787112       0.00683218       0.00172013
H        2.05582694      -0.80474012       0.28354404       0.00003799      -0.02605725      -0.04234211
F       -0.54041782       1.21607531      -0.09560164       0.00026848       0.02175216      -0.02211425
Cl       0.84287658      -3.33825617      -0.35821130       0.01059222      -0.03707651       0.01719296
H       -0.23661607      -0.68998808      -0.74122317       0.00402388      -0.01888476      -0.00922955
H       -0.24064307      -0.45563639       1.00639562      -0.00495407       0.01390070       0.02304547
H        1.88706719       0.91580611       0.75939252       0.01336951      -0.01309856       0.04177286
H        1.93011577       0.45242747      -0.95420929      -0.00775905       0.04329979      -0.00650768
9
Lattice="1.0 0.0 0.0 0.0 1.0 0.0 0.0 0.0 1.0" Properties=species:S:1:pos:R:3:forces:R:3 R1=H R2=H R3=CH3 R4=CH3 leaving_group=Cl nucleophile=Cl rxn=sn2 config=rcc label=H_H_CH3_CH3_Cl_Cl_sn2_rcc conformation=0 reactant_id=H_H_CH3_CH3_Cl_none_-_r product_id=H_H_CH3_CH3_none_Cl_sn2_pc mp2_author_energy=-29302.391748605172 mp2_my_energy=0 hash=59123 address=T id=71 cell="(1,0,0), (0,1,0), (0,0,1)" energy=-17372.27357437058 free_energy=-17372.27357437058 dipole="-0.6231670208181378 2.6392824504085795 0.3932728609924143" pbc="F F F"
C        0.09454361      -0.04868643       0.06232456       0.01610190       0.00557219      -0.00114236
C        1.59327253       0.13788026       0.04005982       0.01162979       0.02032332       0.00445157
H        2.07440011      -0.76107170       0.42288702      -0.03317844      -0.02439012      -0.07875952
F       -0.53280907       1.21699185      -0.01136231      -0.02641438       0.00728610      -0.04985864
Cl       0.83635469      -3.27239283      -0.41126129       0.01067715      -0.06186276       0.01314267
H       -0.25606807      -0.64876244      -0.77223187       0.01830213      -0.02213956       0.02143016
H       -0.23658802      -0.52279403       0.98587881      -0.00545339       0.05020186       0.01955342
H        1.85617310       1.00212330       0.65686037       0.03015614      -0.04070002       0.05368419
H        1.95661261       0.30597761      -0.97574267      -0.02182091       0.06570899       0.01749850
9
Lattice="1.0 0.0 0.0 0.0 1.0 0.0 0.0 0.0 1.0" Properties=species:S:1:pos:R:3:forces:R:3 R1=H R2=H R3=CH3 R4=CH3 leaving_group=Cl nucleophile=Cl rxn=sn2 config=rcc label=H_H_CH3_CH3_Cl_Cl_sn2_rcc conformation=0 reactant_id=H_H_CH3_CH3_Cl_none_-_r product_id=H_H_CH3_CH3_none_Cl_sn2_pc mp2_author_energy=-29302.391748605172 mp2_my_energy=0 hash=59123 address=T id=71 cell="(1,0,0), (0,1,0), (0,0,1)" energy=-17372.203882127364 free_energy=-17372.203882127364 dipole="-0.5830204625615014 2.5349154750551257 0.36153863285211135" pbc="F F F"
C        0.09637425      -0.07231112       0.05628583       0.03485985       0.02063473      -0.00025357
C        1.60101997       0.12753407       0.03757587       0.00857907       0.03423865       0.01078341
H        2.10180258      -0.68475710       0.56159997      -0.06263908      -0.03292932      -0.07732871
F       -0.53535206       1.19435493       0.12070875      -0.03394960       0.02159783      -0.05338783
Cl       0.79689412      -3.16564893      -0.41821751       0.02941601      -0.13190369      -0.00507744
H       -0.26846407      -0.57680468      -0.83318908       0.01696727      -0.02149966       0.03775317
H       -0.22654480      -0.64233084       0.92560856      -0.00001785       0.06689401       0.00870029
H        1.82375857       1.07995143       0.52677602       0.05650432      -0.02492568       0.05465263
H        1.99640295       0.14927783      -0.97973596      -0.04972000       0.06789314       0.02415805
9
Lattice="1.0 0.0 0.0 0.0 1.0 0.0 0.0 0.0 1.0" Properties=species:S:1:pos:R:3:forces:R:3 R1=H R2=H R3=CH3 R4=CH3 leaving_group=Cl nucleophile=Cl rxn=sn2 config=rcc label=H_H_CH3_CH3_Cl_Cl_sn2_rcc conformation=0 reactant_id=H_H_CH3_CH3_Cl_none_-_r product_id=H_H_CH3_CH3_none_Cl_sn2_pc mp2_author_energy=-29302.391748605172 mp2_my_energy=0 hash=59123 address=T id=71 cell="(1,0,0), (0,1,0), (0,0,1)" energy=-17372.001859761967 free_energy=-17372.001859761967 dipole="-0.5400777319242457 2.252579853662526 0.31190657309611813" pbc="F F F"
C        0.11037348      -0.14343141       0.04719836      -0.26475868       0.65700168       0.09732009
C        1.61553345       0.07651726       0.03303354      -0.08430111       0.17853104       0.01621065
H        2.18122559      -0.59623761       0.67700930      -0.28959827      -0.05983365      -0.01644139
F       -0.49395065       1.15371783       0.23508077       0.00699572      -0.17996758      -0.01913868
Cl       0.75031882      -2.91024227      -0.40833000       0.13413638      -0.63531223      -0.11055632
H       -0.30141822      -0.51056981      -0.88540125       0.10742825      -0.13627644       0.08150346
H       -0.23460292      -0.75322890       0.87615555       0.06382091      -0.01313847      -0.08900588
H        1.71164961       1.10131413       0.38760521       0.44956176       0.17445465       0.04902507
H        2.04676235      -0.00857363      -0.96493903      -0.12328496       0.01454100      -0.00891700
9
Lattice="1.0 0.0 0.0 0.0 1.0 0.0 0.0 0.0 1.0" Properties=species:S:1:pos:R:3:forces:R:3 R1=H R2=H R3=CH3 R4=CH3 leaving_group=Cl nucleophile=Cl rxn=sn2 config=rcc label=H_H_CH3_CH3_Cl_Cl_sn2_rcc conformation=0 reactant_id=H_H_CH3_CH3_Cl_none_-_r product_id=H_H_CH3_CH3_none_Cl_sn2_pc mp2_author_energy=-29302.391748605172 mp2_my_energy=0 hash=59123 address=T id=71 cell="(1,0,0), (0,1,0), (0,0,1)" energy=-17371.057999843553 free_energy=-17371.057999843553 dipole="-0.36264990499429545 1.67913749861223 0.22826693990323965" pbc="F F F"
C        0.18057310      -0.33262850       0.01996845      -1.05941165       3.07130260       0.47588260
C        1.64164160       0.02211626       0.02620620      -0.06260304       0.26526903       0.03137646
H        2.26936875      -0.57307864       0.69042421      -0.32374977      -0.09885607      -0.02692853
F       -0.49259735       1.19994207       0.23992978       0.60455431      -1.40144922      -0.17067809
Cl       0.70680050      -2.71905909      -0.38269416       0.24880182      -1.23868789      -0.21670953
H       -0.33175041      -0.47780454      -0.90602808       0.04834263      -0.47752099      -0.15387083
H       -0.25644301      -0.74677421       0.90583989       0.04192991      -0.37357236      -0.01067363
H        1.57955747       1.04843704       0.37173887       0.64340689       0.30841080       0.07257461
H        2.08874086      -0.01188481      -0.96797272      -0.14127111      -0.05489590      -0.00097304
9
Lattice="1.0 0.0 0.0 0.0 1.0 0.0 0.0 0.0 1.0" Properties=species:S:1:pos:R:3:forces:R:3 R1=H R2=H R3=CH3 R4=CH3 leaving_group=Cl nucleophile=Cl rxn=sn2 config=rcc label=H_H_CH3_CH3_Cl_Cl_sn2_rcc conformation=0 reactant_id=H_H_CH3_CH3_Cl_none_-_r product_id=H_H_CH3_CH3_none_Cl_sn2_pc mp2_author_energy=-29302.391748605172 mp2_my_energy=0 hash=59123 address=T id=71 cell="(1,0,0), (0,1,0), (0,0,1)" energy=-17370.349820468175 free_energy=-17370.349820468175 dipole="-0.041625608560162286 0.517778733448296 0.044494278218628884" pbc="F F F"
C        0.26306285      -0.57341281      -0.01725805      -0.00605180       0.01118500       0.00724914
C        1.64863382       0.00234327       0.02400868       0.02171591       0.01006800      -0.00096561
H        2.29558408      -0.56665179       0.69351743       0.00440010      -0.00434632       0.01645001
F       -0.54084948       1.31280952       0.25315354      -0.01764223       0.02225138       0.00639844
Cl       0.68763894      -2.62242787      -0.36576853       0.00017606      -0.02150153      -0.01148061
H       -0.33610881      -0.44031624      -0.89435858       0.00025060       0.00373523      -0.01102312
H       -0.26000269      -0.71997131       0.90714856      -0.00265712      -0.01913904       0.01359621
H        1.52796841       1.02596748       0.36656752      -0.00706302       0.01730872      -0.00493721
H        2.09996439      -0.00907466      -0.96959812       0.00687151      -0.01956143      -0.01528724
9
Lattice="1.0 0.0 0.0 0.0 1.0 0.0 0.0 0.0 1.0" Properties=species:S:1:pos:R:3:forces:R:3 R1=H R2=H R3=CH3 R4=CH3 leaving_group=Cl nucleophile=Cl rxn=sn2 config=rcc label=H_H_CH3_CH3_Cl_Cl_sn2_rcc conformation=0 reactant_id=H_H_CH3_CH3_Cl_none_-_r product_id=H_H_CH3_CH3_none_Cl_sn2_pc mp2_author_energy=-29302.391748605172 mp2_my_energy=0 hash=59123 address=T id=71 cell="(1,0,0), (0,1,0), (0,0,1)" energy=-17370.54089569988 free_energy=-17370.54089569988 dipole="0.13334101516345553 -0.19728731846520076 -0.06901211673847278" pbc="F F F"
C        0.32449522      -0.74162650      -0.04452112       0.12018653      -0.38409967      -0.05488681
C        1.65375167      -0.03212760       0.01805181       0.00997682      -0.07481724      -0.01427389
H        2.32897191      -0.54717032       0.70640671       0.07407016       0.05935401       0.04104056
F       -0.59008783       1.44253341       0.27457604      -0.09456783       0.28956358       0.04686506
Cl       0.65857230      -2.57247425      -0.36305243      -0.06861461       0.11695339      -0.00066623
H       -0.30930186      -0.40991699      -0.85241508       0.06909908       0.06874288       0.07631609
H       -0.22944285      -0.69982784       0.88172709       0.05687287       0.01871896      -0.03354118
H        1.42610086       0.98176328       0.34572652      -0.21381298      -0.08830713      -0.05325447
H        2.12283208      -0.01188761      -0.96908710       0.04678994      -0.00610878      -0.00759914
9
Lattice="1.0 0.0 0.0 0.0 1.0 0.0 0.0 0.0 1.0" Properties=species:S:1:pos:R:3:forces:R:3 R1=H R2=H R3=CH3 R4=CH3 leaving_group=Cl nucleophile=Cl rxn=sn2 config=rcc label=H_H_CH3_CH3_Cl_Cl_sn2_rcc conformation=0 reactant_id=H_H_CH3_CH3_Cl_none_-_r product_id=H_H_CH3_CH3_none_Cl_sn2_pc mp2_author_energy=-29302.391748605172 mp2_my_energy=0 hash=59123 address=T id=71 cell="(1,0,0), (0,1,0), (0,0,1)" energy=-17370.611499210238 free_energy=-17370.611499210238 dipole="0.12210340791992175 -0.40523702854605237 -0.036126398987982866" pbc="F F F"
C        0.35177408      -0.80940271      -0.03971151       0.01465133      -0.01070894       0.00281217
C        1.65032856      -0.05175287       0.02176309       0.00939863      -0.00130457      -0.00286732
H        2.34652831      -0.49069956       0.74282757      -0.00127485       0.03795043       0.03216939
F       -0.55453575       1.57777202       0.23824577       0.01929087       0.05747122       0.01267842
Cl       0.63062084      -2.58881083      -0.42492821      -0.01609106      -0.02629884      -0.02886238
H       -0.30008764      -0.38887308      -0.79248288      -0.00001288       0.00142978       0.01307964
H       -0.17694881      -0.76817850       0.90423379       0.01304076      -0.03711764       0.00774176
H        1.30344315       0.94871294       0.30565825      -0.05226977      -0.00655514      -0.03665729
H        2.13476876      -0.01950183      -0.95819343       0.01326698      -0.01486630      -0.00009438
9
Properties=species:S:1:pos:R:3:forces:R:3 R1=H R2=H R3=CH3 R4=CH3 leaving_group=Cl nucleophile=Cl rxn=sn2 config=rcc label=H_H_CH3_CH3_Cl_Cl_sn2_rcc conformation=0 reactant_id=H_H_CH3_CH3_Cl_none_-_r product_id=H_H_CH3_CH3_none_Cl_sn2_pc mp2_author_energy=-29302.391748605172 mp2_my_energy=0 hash=59123 address=T id=71 energy=-17370.62224714096 free_energy=-17370.62224714096 pbc="F F F"
C        0.35580108      -0.82909202      -0.07100717       0.00024833       0.00082338      -0.00004111
C        1.63692805      -0.04544656      -0.00527332      -0.00029781       0.00024352       0.00001820
H        2.28934875      -0.40138594       0.79765001      -0.00150856       0.00400384       0.00260653
F       -0.47608343       1.63104916       0.42612974      -0.00036934      -0.00051119       0.00019149
Cl       0.63977831      -2.61585654      -0.40978981      -0.00149436       0.00253231      -0.00016929
H       -0.28913148      -0.44902551      -0.85290333       0.00098313      -0.00352841      -0.00278458
H       -0.18783408      -0.75767768       0.86230190       0.00049392      -0.00400627       0.00274725
H        1.23180380       0.96054687       0.20155695       0.00441636      -0.00257230      -0.00014115
H        2.18528050      -0.08384618      -0.95125253      -0.00247166       0.00301512      -0.00242734
