9
Properties=species:S:1:pos:R:3:forces:R:3 R1=H R2=H R3=CH3 R4=CH3 leaving_group=Cl nucleophile=Cl rxn=sn2 config=rcc label=H_H_CH3_CH3_Cl_Cl_sn2_rcc conformation=0 reactant_id=H_H_CH3_CH3_Cl_none_-_r product_id=H_H_CH3_CH3_none_Cl_sn2_pc mp2_author_energy=-29302.391748605172 mp2_my_energy=0 hash=59123 address=T id=71 energy=-17370.62224714096 free_energy=-17370.62224714096 pbc="F F F"
C        0.12542541       0.11270554      -0.00029240       0.00024833       0.00082338      -0.00004111
C        1.62503867       0.00847468       0.00156754      -0.00029781       0.00024352       0.00001820
H        1.99473018      -0.50605055       0.89354482      -0.00150856       0.00400384       0.00260653
F        0.89788639       2.64149152      -0.00442372      -0.00036934      -0.00051119       0.00019149
Cl      -0.69504884      -1.53494042       0.00509220      -0.00149436       0.00253231      -0.00016929
H       -0.22306082       0.64592326      -0.87549887       0.00098313      -0.00352841      -0.00278458
H       -0.22431889       0.65275656       0.87018381       0.00049392      -0.00400627       0.00274725
H        1.88822962       1.08069343      -0.00059746       0.00441636      -0.00257230      -0.00014115
H        1.99700981      -0.51031959      -0.88698835      -0.00247166       0.00301512      -0.00242734
