9
Lattice="1.0 0.0 0.0 0.0 1.0 0.0 0.0 0.0 1.0" Properties=species:S:1:pos:R:3:forces:R:3 R1=H R2=H R3=CH3 R4=CH3 leaving_group=Cl nucleophile=Cl rxn=sn2 config=rcc label=H_H_CH3_CH3_Cl_Cl_sn2_rcc conformation=0 reactant_id=H_H_CH3_CH3_Cl_none_-_r product_id=H_H_CH3_CH3_none_Cl_sn2_pc mp2_author_energy=-29302.391748605172 mp2_my_energy=0 hash=59123 address=T id=71 energy=-17372.33216497299 free_energy=-17372.33216497299 cell="(1,0,0), (0,1,0), (0,0,1)" pbc="F F F"
C        0.09142836      -0.02057665       0.00018700      -0.00383810       0.00153641      -0.00068481
C        1.58722280       0.14924827      -0.00111085       0.00020147      -0.00237977      -0.00061630
H        2.03195864      -0.84661872      -0.00635447      -0.00043287       0.00066109       0.00360198
F       -0.53491861       1.24651010      -0.01033438       0.00123778      -0.00105707       0.00337249
Cl       0.88543890      -3.39675651       0.00603569      -0.00050197      -0.00038193      -0.00016305
H       -0.24798218      -0.56713807      -0.87777751      -0.00113173       0.00148985       0.00279851
H       -0.24989953      -0.55273097       0.88632969       0.00349898      -0.00246302      -0.00540624
H        1.91405155       0.69490750       0.88785996      -0.00213133       0.00382493      -0.00088743
H        1.90859158       0.70242064      -0.88742268       0.00309776      -0.00123049      -0.00201515
9
Lattice="1.0 0.0 0.0 0.0 1.0 0.0 0.0 0.0 1.0" Properties=species:S:1:pos:R:3:forces:R:3 R1=H R2=H R3=CH3 R4=CH3 leaving_group=Cl nucleophile=Cl rxn=sn2 config=rcc label=H_H_CH3_CH3_Cl_Cl_sn2_rcc conformation=0 reactant_id=H_H_CH3_CH3_Cl_none_-_r product_id=H_H_CH3_CH3_none_Cl_sn2_pc mp2_author_energy=-29302.391748605172 mp2_my_energy=0 hash=59123 address=T id=71 energy=-17372.33131072723 free_energy=-17372.33131072723 cell="(1,0,0), (0,1,0), (0,0,1)" stress="-9.76301161337081e-11 2.075444047806646e-09 -1.6063430654487564e-10 2.075444047806646e-09 1.0029812956870412e-09 5.270629551473455e-09 -1.6063430654487564e-10 5.270629551473455e-09 2.2321769813529095e-10" pbc="F F F"
C        0.08823835      -0.01579072       0.01618173      -0.00015997       0.00016958      -0.00069387
C        1.58507338       0.14585801       0.01047842      -0.00011133      -0.00028424      -0.00053152
H        2.02463516      -0.85105084       0.06039907      -0.00050456      -0.00062046      -0.00276086
F       -0.53184132       1.25264090      -0.04643771       0.00018553       0.00053757       0.00171648
Cl       0.90518414      -3.40227352      -0.09268428       0.00114459       0.00044890       0.00425041
H       -0.25313678      -0.59859952      -0.83683983      -0.00044073       0.00192551      -0.00187363
H       -0.25686415      -0.50652476       0.92529916      -0.00023540      -0.00159105      -0.00161524
H        1.91146458       0.74193025       0.86697486       0.00018189      -0.00246428       0.00093217
H        1.91313815       0.64307579      -0.90595897      -0.00006002       0.00187846       0.00057606
9
Lattice="1.0 0.0 0.0 0.0 1.0 0.0 0.0 0.0 1.0" Properties=species:S:1:pos:R:3:forces:R:3 R1=H R2=H R3=CH3 R4=CH3 leaving_group=Cl nucleophile=Cl rxn=sn2 config=rcc label=H_H_CH3_CH3_Cl_Cl_sn2_rcc conformation=0 reactant_id=H_H_CH3_CH3_Cl_none_-_r product_id=H_H_CH3_CH3_none_Cl_sn2_pc mp2_author_energy=-29302.391748605172 mp2_my_energy=0 hash=59123 address=T id=71 energy=-17372.3300114561 free_energy=-17372.3300114561 cell="(1,0,0), (0,1,0), (0,0,1)" stress="-3.93550666877679e-10 8.306809805141647e-09 1.1981965857955805e-10 8.306809805141647e-09 -2.1894806702836564e-09 5.955736446194023e-09 1.1981965857955805e-10 5.955736446194023e-09 5.355777405679776e-10" pbc="F F F"
C        0.08291241      -0.00726566       0.03486168      -0.00064897       0.00097905      -0.00062133
C        1.58122929       0.14062055       0.02388053      -0.00047902      -0.00084090      -0.00061559
H        2.01297834      -0.85594666       0.12360043      -0.00186744      -0.00196423      -0.00446226
F       -0.52570206       1.26119682      -0.09630508       0.00077193       0.00187048       0.00083047
Cl       0.93820335      -3.41798972      -0.20149022       0.00452197      -0.00076883       0.00473041
H       -0.26069991      -0.63385462      -0.78537351      -0.00145753       0.00235806      -0.00146051
H       -0.26890359      -0.44175215       0.97043108      -0.00114295       0.00025322      -0.00110284
H        1.91197427       0.78109327       0.84618138       0.00075415      -0.00447556       0.00187224
H        1.91389941       0.58316376      -0.91837385      -0.00045212       0.00258871       0.00082940
9
Lattice="1.0 0.0 0.0 0.0 1.0 0.0 0.0 0.0 1.0" Properties=species:S:1:pos:R:3:forces:R:3 R1=H R2=H R3=CH3 R4=CH3 leaving_group=Cl nucleophile=Cl rxn=sn2 config=rcc label=H_H_CH3_CH3_Cl_Cl_sn2_rcc conformation=0 reactant_id=H_H_CH3_CH3_Cl_none_-_r product_id=H_H_CH3_CH3_none_Cl_sn2_pc mp2_author_energy=-29302.391748605172 mp2_my_energy=0 hash=59123 address=T id=71 energy=-17372.327481372085 free_energy=-17372.327481372085 cell="(1,0,0), (0,1,0), (0,0,1)" stress="-4.4339358404274994e-10 2.170111430121629e-08 5.184928977473425e-10 2.170111430121629e-08 -1.7914951991891195e-08 9.064644837870217e-09 5.184928977473425e-10 9.064644837870217e-09 8.36463757231555e-10" pbc="F F F"
C        0.08145080      -0.00634090       0.05340255      -0.00165962       0.00322161      -0.00029752
C        1.58024356       0.13862823       0.03798035      -0.00130928      -0.00150921      -0.00077356
H        2.01260301      -0.84750688       0.21008407      -0.00498468      -0.00588999      -0.01437350
F       -0.52430789       1.25633203      -0.13297050       0.00190366       0.00408383      -0.00570362
Cl       0.94356298      -3.41351162      -0.31746348       0.01182204      -0.00687699       0.00685364
H       -0.26128289      -0.66888850      -0.73801027      -0.00315176       0.00085915       0.00214582
H       -0.27217585      -0.39641462       1.00819827      -0.00315819       0.00830672       0.00120253
H        1.90695996       0.84118067       0.81001290       0.00335786      -0.01289380       0.00800059
H        1.91883783       0.50578717      -0.93382143      -0.00282002       0.01069867       0.00294562
9
Lattice="1.0 0.0 0.0 0.0 1.0 0.0 0.0 0.0 1.0" Properties=species:S:1:pos:R:3:forces:R:3 R1=H R2=H R3=CH3 R4=CH3 leaving_group=Cl nucleophile=Cl rxn=sn2 config=rcc label=H_H_CH3_CH3_Cl_Cl_sn2_rcc conformation=0 reactant_id=H_H_CH3_CH3_Cl_none_-_r product_id=H_H_CH3_CH3_none_Cl_sn2_pc mp2_author_energy=-29302.391748605172 mp2_my_energy=0 hash=59123 address=T id=71 energy=-17372.323862311074 free_energy=-17372.323862311074 cell="(1,0,0), (0,1,0), (0,0,1)" stress="8.328026835733872e-10 2.9193944173659752e-08 2.2654092245618616e-10 2.9193944173659752e-08 -3.8320084860196364e-08 1.1071140054872017e-08 2.2654092245618616e-10 1.1071140054872017e-08 2.9032593378537063e-10" pbc="F F F"
C        0.08386839      -0.01216324       0.05714131      -0.00216111       0.00508761       0.00010062
C        1.58224766       0.14001234       0.04170401      -0.00184593      -0.00117914      -0.00069358
H        2.02095822      -0.83488570       0.25537170      -0.00713640      -0.00966215      -0.02501044
F       -0.52717053       1.24854892      -0.12560506       0.00235488       0.00514264      -0.01401705
Cl       0.92493356      -3.39578895      -0.35069193       0.01592937      -0.01460507       0.00819390
H       -0.25681860      -0.67421066      -0.73513870      -0.00320639      -0.00261418       0.00664098
H       -0.26721384      -0.40600713       1.01140868      -0.00448542       0.01691794       0.00421642
H        1.89944526       0.87656000       0.78564851       0.00596216      -0.02032108       0.01570543
H        1.92564137       0.46720001      -0.94242606      -0.00541116       0.02123346       0.00486372
9
Lattice="1.0 0.0 0.0 0.0 1.0 0.0 0.0 0.0 1.0" Properties=species:S:1:pos:R:3:forces:R:3 R1=H R2=H R3=CH3 R4=CH3 leaving_group=Cl nucleophile=Cl rxn=sn2 config=rcc label=H_H_CH3_CH3_Cl_Cl_sn2_rcc conformation=0 reactant_id=H_H_CH3_CH3_Cl_none_-_r product_id=H_H_CH3_CH3_none_Cl_sn2_pc mp2_author_energy=-29302.391748605172 mp2_my_energy=0 hash=59123 address=T id=71 energy=-17372.318393823713 free_energy=-17372.318393823713 cell="(1,0,0), (0,1,0), (0,0,1)" stress="3.363943203556131e-09 3.4091649368564016e-08 -2.6698783878889945e-10 3.4091649368564016e-08 -5.821892449298201e-08 1.2594150402454755e-08 -2.6698783878889945e-10 1.2594150402454755e-08 -1.0504115670089456e-09" pbc="F F F"
C        0.08608560      -0.01816766       0.05864486      -0.00236048       0.00663435       0.00053544
C        1.58426114       0.14071169       0.04364645      -0.00234372      -0.00053959      -0.00052243
H        2.02914075      -0.82192770       0.29551097      -0.00897776      -0.01433131      -0.03554204
F       -0.52969420       1.24240191      -0.10966179       0.00258245       0.00586901      -0.02314225
Cl       0.90753746      -3.37592131      -0.37106750       0.01864309      -0.02175359       0.00908714
H       -0.25380524      -0.67248757      -0.73996615      -0.00242948      -0.00725707       0.01132285
H       -0.26224623      -0.42386153       1.00891608      -0.00537253       0.02552030       0.00789120
H        1.89154212       0.90711207       0.76116706       0.00836526      -0.02665321       0.02452777
H        1.93307012       0.43140567      -0.94977752      -0.00810684       0.03251110       0.00584233
9
Lattice="1.0 0.0 0.0 0.0 1.0 0.0 0.0 0.0 1.0" Properties=species:S:1:pos:R:3:forces:R:3 R1=H R2=H R3=CH3 R4=CH3 leaving_group=Cl nucleophile=Cl rxn=sn2 config=rcc label=H_H_CH3_CH3_Cl_Cl_sn2_rcc conformation=0 reactant_id=H_H_CH3_CH3_Cl_none_-_r product_id=H_H_CH3_CH3_none_Cl_sn2_pc mp2_author_energy=-29302.391748605172 mp2_my_energy=0 hash=59123 address=T id=71 energy=-17372.306207326532 free_energy=-17372.306207326532 cell="(1,0,0), (0,1,0), (0,0,1)" stress="8.60624998043064e-09 3.8032573955880526e-08 -1.0335821424653296e-09 3.8032573955880526e-08 -8.46179544619038e-08 1.4877124139171872e-08 -1.0335821424653296e-09 1.4877124139171872e-08 -2.805902534461825e-09" pbc="F F F"
C        0.08887313      -0.02712985       0.05930219      -0.00228639       0.00841102       0.00112517
C        1.58724873       0.14060228       0.04523508      -0.00298619       0.00064415      -0.00028625
H        2.04100074      -0.80080223       0.35353407      -0.01106900      -0.02213384      -0.05017282
F       -0.53281682       1.23470045      -0.07784319       0.00272755       0.00682847      -0.03671472
Cl       0.88414440      -3.34367000      -0.39256347       0.02087439      -0.03089919       0.01025218
H       -0.25159906      -0.66310144      -0.75318100      -0.00053733      -0.01504687       0.01773394
H       -0.25538995      -0.45720487       1.00007868      -0.00599352       0.03721973       0.01386294
H        1.87935225       0.94895157       0.72182875       0.01118749      -0.03423673       0.03826910
H        1.94507808       0.37691968      -0.95897866      -0.01191701       0.04921325       0.00593046
9
Lattice="1.0 0.0 0.0 0.0 1.0 0.0 0.0 0.0 1.0" Properties=species:S:1:pos:R:3:forces:R:3 R1=H R2=H R3=CH3 R4=CH3 leaving_group=Cl nucleophile=Cl rxn=sn2 config=rcc label=H_H_CH3_CH3_Cl_Cl_sn2_rcc conformation=0 reactant_id=H_H_CH3_CH3_Cl_none_-_r product_id=H_H_CH3_CH3_none_Cl_sn2_pc mp2_author_energy=-29302.391748605172 mp2_my_energy=0 hash=59123 address=T id=71 energy=-17372.287022826764 free_energy=-17372.287022826764 cell="(1,0,0), (0,1,0), (0,0,1)" stress="1.5505105741758937e-08 3.8756912367412716e-08 -1.7381767119476546e-09 3.8756912367412716e-08 -1.1229884644413491e-07 1.700322549092211e-08 -1.7381767119476546e-09 1.700322549092211e-08 -4.171844531466985e-09" pbc="F F F"
C        0.09107736      -0.03673162       0.05896254      -0.00182355       0.00988900       0.00160989
C        1.59047884       0.13899911       0.04609816      -0.00349252       0.00227301      -0.00014576
H        2.05332292      -0.77422097       0.41754282      -0.01244608      -0.03120645      -0.06275546
F       -0.53549168       1.22726043      -0.03529140       0.00255223       0.00830599      -0.04966530
Cl       0.86228722      -3.30561086      -0.41039433       0.02124993      -0.03999372       0.01126051
H       -0.25209140      -0.64596678      -0.77208267       0.00201878      -0.02322349       0.02296206
H       -0.24906543      -0.49897708       0.98543577      -0.00565567       0.04718977       0.02030291
H        1.86605283       0.99144157       0.67349204       0.01296083      -0.03875462       0.05271240
H        1.95932084       0.31307180      -0.96635047      -0.01536394       0.06552050       0.00371875
9
Lattice="1.0 0.0 0.0 0.0 1.0 0.0 0.0 0.0 1.0" Properties=species:S:1:pos:R:3:forces:R:3 R1=H R2=H R3=CH3 R4=CH3 leaving_group=Cl nucleophile=Cl rxn=sn2 config=rcc label=H_H_CH3_CH3_Cl_Cl_sn2_rcc conformation=0 reactant_id=H_H_CH3_CH3_Cl_none_-_r product_id=H_H_CH3_CH3_none_Cl_sn2_pc mp2_author_energy=-29302.391748605172 mp2_my_energy=0 hash=59123 address=T id=71 energy=-17372.26282518157 free_energy=-17372.26282518157 cell="(1,0,0), (0,1,0), (0,0,1)" stress="2.046686152870675e-08 3.800463565360433e-08 -2.5367567836617557e-09 3.800463565360433e-08 -1.492078144265661e-07 1.643779500904094e-08 -2.5367567836617557e-09 1.643779500904094e-08 -7.506960017721899e-09" pbc="F F F"
C        0.09243384      -0.04582780       0.05808880      -0.00137948       0.01173017       0.00195861
C        1.59360922       0.13631899       0.04656922      -0.00381219       0.00462698      -0.00008163
H        2.06473958      -0.74358216       0.48119880      -0.01332467      -0.04058082      -0.06843407
F       -0.53754155       1.21999627       0.01231510       0.00093171       0.01132317      -0.05855973
Cl       0.84405971      -3.26728421      -0.42514915       0.02050755      -0.05099455       0.01097819
H       -0.25493406      -0.62362150      -0.79297531       0.00453841      -0.02930365       0.02529163
H       -0.24422378      -0.54292330       0.96700545      -0.00437709       0.05300903       0.02593399
H        1.85355352       1.03011389       0.62036606       0.01464850      -0.03688448       0.06497029
H        1.97419502       0.24607540      -0.97000652      -0.01773274       0.07707416      -0.00205726
9
Lattice="1.0 0.0 0.0 0.0 1.0 0.0 0.0 0.0 1.0" Properties=species:S:1:pos:R:3:forces:R:3 R1=H R2=H R3=CH3 R4=CH3 leaving_group=Cl nucleophile=Cl rxn=sn2 config=rcc label=H_H_CH3_CH3_Cl_Cl_sn2_rcc conformation=0 reactant_id=H_H_CH3_CH3_Cl_none_-_r product_id=H_H_CH3_CH3_none_Cl_sn2_pc mp2_author_energy=-29302.391748605172 mp2_my_energy=0 hash=59123 address=T id=71 energy=-17372.21696630449 free_energy=-17372.21696630449 cell="(1,0,0), (0,1,0), (0,0,1)" stress="1.5064733379163486e-08 3.683476798262242e-08 -6.498120979674566e-09 3.683476798262242e-08 -2.7162409604666434e-07 -3.961338348021051e-09 -6.498120979674566e-09 -3.961338348021051e-09 -1.4331448002189195e-08" pbc="F F F"
C        0.09379362      -0.06149126       0.05623557      -0.00319022       0.02092229       0.00286116
C        1.59860563       0.12930352       0.04709526      -0.00478047       0.01360692       0.00130509
H        2.08248004      -0.68584116       0.58091487      -0.02038706      -0.04955474      -0.06000536
F       -0.53838198       1.20536250       0.09412043      -0.01007010       0.01927685      -0.06053746
Cl       0.81858299      -3.19715097      -0.44557541       0.02188444      -0.08805331       0.00286723
H       -0.26246920      -0.58239248      -0.82687828       0.00870001      -0.03176860       0.02403653
H       -0.23894962      -0.61508805       0.93219524      -0.00063299       0.05502563       0.02915764
H        1.83322801       1.08326218       0.52630307       0.03109507      -0.01909805       0.07311790
H        1.99900203       0.13330133      -0.96699830      -0.02261869       0.07964302      -0.01280274
9
Lattice="1.0 0.0 0.0 0.0 1.0 0.0 0.0 0.0 1.0" Properties=species:S:1:pos:R:3:forces:R:3 R1=H R2=H R3=CH3 R4=CH3 leaving_group=Cl nucleophile=Cl rxn=sn2 config=rcc label=H_H_CH3_CH3_Cl_Cl_sn2_rcc conformation=0 reactant_id=H_H_CH3_CH3_Cl_none_-_r product_id=H_H_CH3_CH3_none_Cl_sn2_pc mp2_author_energy=-29302.391748605172 mp2_my_energy=0 hash=59123 address=T id=71 energy=-17372.07855842068 free_energy=-17372.07855842068 cell="(1,0,0), (0,1,0), (0,0,1)" stress="1.3204798964488105e-07 -4.928669228191021e-08 -2.559258709118753e-09 -4.928669228191021e-08 -1.3862133481033845e-06 -2.729145433144448e-07 -2.559258709118753e-09 -2.729145433144448e-07 7.313314261134338e-08" pbc="F F F"
C        0.10128178      -0.11606745       0.05006179      -0.09226015       0.26487088       0.04515844
C        1.61096574       0.09238079       0.04437549      -0.05149343       0.11978647       0.01939005
H        2.13542726      -0.54786473       0.75238254      -0.17637944      -0.03720028      -0.02344244
F       -0.51141504       1.15572585       0.26048142      -0.05435403      -0.01460749      -0.01230922
Cl       0.76495434      -2.96459181      -0.46309225       0.09528544      -0.41275667      -0.07512735
H       -0.28782424      -0.49402088      -0.89054258       0.05857668      -0.04951623       0.05626960
H       -0.23839330      -0.76222840       0.85484344       0.04561252       0.01312334      -0.05000928
H        1.75062006       1.13911917       0.32032289       0.30083503       0.11249457       0.03347858
H        2.06027491      -0.09318693      -0.93142031      -0.12582261       0.00380541       0.00659162
9
Lattice="1.0 0.0 0.0 0.0 1.0 0.0 0.0 0.0 1.0" Properties=species:S:1:pos:R:3:forces:R:3 R1=H R2=H R3=CH3 R4=CH3 leaving_group=Cl nucleophile=Cl rxn=sn2 config=rcc label=H_H_CH3_CH3_Cl_Cl_sn2_rcc conformation=0 reactant_id=H_H_CH3_CH3_Cl_none_-_r product_id=H_H_CH3_CH3_none_Cl_sn2_pc mp2_author_energy=-29302.391748605172 mp2_my_energy=0 hash=59123 address=T id=71 energy=-17371.483748488805 free_energy=-17371.483748488805 cell="(1,0,0), (0,1,0), (0,0,1)" stress="9.479032288226572e-07 -1.2897071507930602e-06 -2.116187043876746e-07 -1.2897071507930602e-06 -2.5371552557516537e-06 -6.099254251526753e-07 -2.116187043876746e-07 -6.099254251526753e-07 2.842552736538923e-07" pbc="F F F"
C        0.14788554      -0.24955867       0.02750685      -0.99518674       2.52528765       0.43978368
C        1.63666651       0.03175623       0.03469914      -0.19364640       0.30275841       0.04738790
H        2.22394931      -0.52614207       0.76751275      -0.37804858      -0.06878857      -0.05330737
F       -0.48407257       1.16266395       0.26959031       0.51788269      -1.18978234      -0.18154801
Cl       0.71705748      -2.75582648      -0.42734648       0.24563792      -1.19414979      -0.21749689
H       -0.31762342      -0.46732052      -0.91933534       0.15433281      -0.39802704       0.06432284
H       -0.26130410      -0.77040108       0.87930460       0.13518053      -0.26863260      -0.20369169
H        1.59884881       1.08367957       0.29904967       0.78493118       0.34921217       0.06790642
H        2.12448395      -0.09958533      -0.93356907      -0.27108339      -0.05787792       0.03664313
9
Lattice="1.0 0.0 0.0 0.0 1.0 0.0 0.0 0.0 1.0" Properties=species:S:1:pos:R:3:forces:R:3 R1=H R2=H R3=CH3 R4=CH3 leaving_group=Cl nucleophile=Cl rxn=sn2 config=rcc label=H_H_CH3_CH3_Cl_Cl_sn2_rcc conformation=0 reactant_id=H_H_CH3_CH3_Cl_none_-_r product_id=H_H_CH3_CH3_none_Cl_sn2_pc mp2_author_energy=-29302.391748605172 mp2_my_energy=0 hash=59123 address=T id=71 energy=-17370.742283775468 free_energy=-17370.742283775468 cell="(1,0,0), (0,1,0), (0,0,1)" stress="5.203043568543234e-07 -1.4378554999552e-06 -2.45649151024265e-07 -1.4378554999552e-06 -1.092727974151772e-06 -2.5533165803553555e-07 -2.45649151024265e-07 -2.5533165803553555e-07 -1.4381482376270863e-07" pbc="F F F"
C        0.20370496      -0.39163741       0.00287123      -0.88938685       2.57593649       0.45622446
C        1.64773525       0.01481251       0.03198620      -0.06404589       0.19406786       0.02838580
H        2.24506141      -0.52198687       0.77073937      -0.21553506      -0.05225105      -0.02924249
F       -0.51320331       1.22951055       0.28009570       0.53256462      -1.21096545      -0.19261841
Cl       0.70325098      -2.68861027      -0.41532395       0.20102533      -0.98503804      -0.18182006
H       -0.32631590      -0.44480974      -0.92295250       0.02547207      -0.36990735      -0.13145685
H       -0.26885115      -0.75535328       0.89065831       0.02541511      -0.33796248      -0.00934449
H        1.55468505       1.06404607       0.29479470       0.53503107       0.23627419       0.04432803
H        2.13982422      -0.09670597      -0.93545661      -0.15054040      -0.05015417       0.01554401
9
Lattice="1.0 0.0 0.0 0.0 1.0 0.0 0.0 0.0 1.0" Properties=species:S:1:pos:R:3:forces:R:3 R1=H R2=H R3=CH3 R4=CH3 leaving_group=Cl nucleophile=Cl rxn=sn2 config=rcc label=H_H_CH3_CH3_Cl_Cl_sn2_rcc conformation=0 reactant_id=H_H_CH3_CH3_Cl_none_-_r product_id=H_H_CH3_CH3_none_Cl_sn2_pc mp2_author_energy=-29302.391748605172 mp2_my_energy=0 hash=59123 address=T id=71 energy=-17370.384393544096 free_energy=-17370.384393544096 cell="(1,0,0), (0,1,0), (0,0,1)" stress="1.0772425638334236e-07 -5.142478107124715e-07 -8.610425517145944e-08 -5.142478107124715e-07 -2.2487435496119305e-07 -5.0494525127669604e-08 -8.610425517145944e-08 -5.0494525127669604e-08 -1.1761724114476982e-07" pbc="F F F"
C        0.24629704      -0.51502407      -0.01897018      -0.24672386       0.74290699       0.13189926
C        1.65081104       0.00552434       0.03059706      -0.00891040       0.06683634       0.00976964
H        2.25527463      -0.51926203       0.77235950      -0.06547040      -0.01371951      -0.00546229
F       -0.53872841       1.28746808       0.28959735       0.15532845      -0.35296056      -0.05242505
Cl       0.69362982      -2.64139068      -0.40678390       0.06599369      -0.29957065      -0.05776541
H       -0.32755658      -0.42700203      -0.91666372      -0.01604513      -0.10044500      -0.06916494
H       -0.27004435      -0.73923275       0.89107444      -0.01318611      -0.10471243       0.02850459
H        1.52904770       1.05280710       0.29232224       0.17159587       0.08144722       0.00956398
H        2.14716063      -0.09462237      -0.93612034      -0.04258211      -0.01978238       0.00508022
9
Lattice="1.0 0.0 0.0 0.0 1.0 0.0 0.0 0.0 1.0" Properties=species:S:1:pos:R:3:forces:R:3 R1=H R2=H R3=CH3 R4=CH3 leaving_group=Cl nucleophile=Cl rxn=sn2 config=rcc label=H_H_CH3_CH3_Cl_Cl_sn2_rcc conformation=0 reactant_id=H_H_CH3_CH3_Cl_none_-_r product_id=H_H_CH3_CH3_none_Cl_sn2_pc mp2_author_energy=-29302.391748605172 mp2_my_energy=0 hash=59123 address=T id=71 energy=-17370.39038540707 free_energy=-17370.39038540707 cell="(1,0,0), (0,1,0), (0,0,1)" stress="-4.545977217449122e-08 4.829800823505774e-07 9.287595435634799e-08 4.829800823505774e-07 1.203677229521165e-07 -2.3120835686785787e-09 9.287595435634799e-08 -2.3120835686785787e-09 1.5102959096069174e-07" pbc="F F F"
C        0.28249593      -0.62890887      -0.03932685       0.18507497      -0.58221094      -0.10479282
C        1.65060192      -0.00650348       0.02865680      -0.00102472      -0.06140831      -0.01056822
H        2.26520577      -0.51613068       0.77393382       0.04824869       0.02061711       0.01250371
F       -0.56293288       1.34193349       0.29874881      -0.12413034       0.27746668       0.05294136
Cl       0.68221958      -2.59268395      -0.39794259      -0.05821382       0.24976752       0.04205336
H       -0.32132882      -0.41218462      -0.90090689       0.03146430       0.07726857       0.08052179
H       -0.26449331      -0.72231151       0.88139355       0.02879441       0.08543450      -0.04985964
H        1.49979790       1.03855763       0.28943468      -0.14980792      -0.07120406      -0.02191849
H        2.15432543      -0.09250242      -0.93657887       0.03959443       0.00426894      -0.00088105
9
Lattice="1.0 0.0 0.0 0.0 1.0 0.0 0.0 0.0 1.0" Properties=species:S:1:pos:R:3:forces:R:3 R1=H R2=H R3=CH3 R4=CH3 leaving_group=Cl nucleophile=Cl rxn=sn2 config=rcc label=H_H_CH3_CH3_Cl_Cl_sn2_rcc conformation=0 reactant_id=H_H_CH3_CH3_Cl_none_-_r product_id=H_H_CH3_CH3_none_Cl_sn2_pc mp2_author_energy=-29302.391748605172 mp2_my_energy=0 hash=59123 address=T id=71 energy=-17370.521226868896 free_energy=-17370.521226868896 cell="(1,0,0), (0,1,0), (0,0,1)" stress="2.5028308559858685e-12 7.116055274402685e-07 1.3793285908989218e-07 7.116055274402685e-07 -2.817827912266727e-07 -8.786786696245508e-08 1.3793285908989218e-07 -8.786786696245508e-08 1.8713078006281552e-07" pbc="F F F"
C        0.31525209      -0.72027158      -0.05560398       0.15669349      -0.43709299      -0.07857686
C        1.65282115      -0.02642104       0.02499896       0.01061685      -0.09514487      -0.01827947
H        2.28247582      -0.50842568       0.77758404       0.07989331       0.04128381       0.02167793
F       -0.59069196       1.41257299       0.31085210      -0.13315585       0.33678537       0.06418976
Cl       0.66618492      -2.56299982      -0.39318203      -0.07654244       0.14281952       0.02003035
H       -0.30454076      -0.39991999      -0.87919714       0.07984044       0.05988261       0.10368031
H       -0.24836981      -0.70750467       0.86564908       0.07755145       0.07011641      -0.07577316
H        1.44511830       1.01086300       0.28353546      -0.26169232      -0.13082988      -0.03520980
H        2.16764177      -0.08862762      -0.93722404       0.06679506       0.01218002      -0.00173905
9
Lattice="1.0 0.0 0.0 0.0 1.0 0.0 0.0 0.0 1.0" Properties=species:S:1:pos:R:3:forces:R:3 R1=H R2=H R3=CH3 R4=CH3 leaving_group=Cl nucleophile=Cl rxn=sn2 config=rcc label=H_H_CH3_CH3_Cl_Cl_sn2_rcc conformation=0 reactant_id=H_H_CH3_CH3_Cl_none_-_r product_id=H_H_CH3_CH3_none_Cl_sn2_pc mp2_author_energy=-29302.391748605172 mp2_my_energy=0 hash=59123 address=T id=71 energy=-17370.585912302697 free_energy=-17370.585912302697 cell="(1,0,0), (0,1,0), (0,0,1)" stress="8.413620466394788e-08 3.106468171523818e-07 6.634498099075873e-08 3.106468171523818e-07 -4.325726505730829e-07 -1.0078760600736656e-07 6.634498099075873e-08 -1.0078760600736656e-07 4.002069181825586e-08" pbc="F F F"
C        0.33763792      -0.76638234      -0.06364726       0.06127447      -0.12608969      -0.02285404
C        1.65682625      -0.04323090       0.02166530       0.01100079      -0.04591261      -0.00999217
H        2.29941984      -0.49248336       0.78450880       0.04364768       0.04761335       0.02264048
F       -0.60320258       1.48157175       0.32348881      -0.03476921       0.18764840       0.04089422
Cl       0.64575527      -2.56933666      -0.39695113      -0.05578932      -0.01668695      -0.01235394
H       -0.28430946      -0.39509328      -0.86562437       0.05498091       0.01399826       0.03681478
H       -0.22751840      -0.70518332       0.85629159       0.05750379       0.00625515      -0.02614850
H        1.37897904       0.98139389       0.27429586      -0.18116727      -0.07921823      -0.03177154
H        2.18230362      -0.08199018      -0.93661516       0.04331814       0.01239232       0.00277072
9
Lattice="1.0 0.0 0.0 0.0 1.0 0.0 0.0 0.0 1.0" Properties=species:S:1:pos:R:3:forces:R:3 R1=H R2=H R3=CH3 R4=CH3 leaving_group=Cl nucleophile=Cl rxn=sn2 config=rcc label=H_H_CH3_CH3_Cl_Cl_sn2_rcc conformation=0 reactant_id=H_H_CH3_CH3_Cl_none_-_r product_id=H_H_CH3_CH3_none_Cl_sn2_pc mp2_author_energy=-29302.391748605172 mp2_my_energy=0 hash=59123 address=T id=71 energy=-17370.609239735313 free_energy=-17370.609239735313 cell="(1,0,0), (0,1,0), (0,0,1)" stress="1.1850001637910367e-07 4.2927362495206134e-08 1.647260465564869e-08 4.2927362495206134e-08 -2.6812512730024704e-07 -6.710383212755095e-08 1.647260465564869e-08 -6.710383212755095e-08 -8.876213460151181e-09" pbc="F F F"
C        0.35013212      -0.79170330      -0.06773823       0.01968571      -0.03968896      -0.00728380
C        1.65717732      -0.05101798       0.01988983       0.00060130      -0.01215936      -0.00368736
H        2.30658916      -0.47048103       0.79433246       0.00890858       0.03788226       0.01825683
F       -0.58982686       1.53515844       0.33446477       0.02070582       0.08322333       0.02326691
Cl       0.62924254      -2.58520021      -0.40578787      -0.02598739      -0.02467143      -0.01489521
H       -0.27185683      -0.39868857      -0.85978575       0.01946405      -0.00545348       0.00839037
H       -0.21190389      -0.71629511       0.85361723       0.02484407      -0.01693457      -0.00497275
H        1.32432800       0.96318287       0.26240718      -0.08632408      -0.02760975      -0.02400052
H        2.19200995      -0.07568952      -0.93398716       0.01810195       0.00541196       0.00492552
9
Lattice="1.0 0.0 0.0 0.0 1.0 0.0 0.0 0.0 1.0" Properties=species:S:1:pos:R:3:forces:R:3 R1=H R2=H R3=CH3 R4=CH3 leaving_group=Cl nucleophile=Cl rxn=sn2 config=rcc label=H_H_CH3_CH3_Cl_Cl_sn2_rcc conformation=0 reactant_id=H_H_CH3_CH3_Cl_none_-_r product_id=H_H_CH3_CH3_none_Cl_sn2_pc mp2_author_energy=-29302.391748605172 mp2_my_energy=0 hash=59123 address=T id=71 energy=-17370.62019766472 free_energy=-17370.62019766472 cell="(1,0,0), (0,1,0), (0,0,1)" stress="6.841323790269694e-08 -1.654956528782905e-08 1.7449244281058936e-09 -1.654956528782905e-08 -8.47081216903888e-08 -2.7076295869227297e-08 1.7449244281058936e-09 -2.7076295869227297e-08 -9.084974487675394e-09" pbc="F F F"
C        0.35580137      -0.81481433      -0.06929559       0.00222231      -0.00880431      -0.00167110