18
Properties=species:S:1:pos:R:3:mp2_forces:R:3:forces:R:3 R1=CH3 R2=CH3 R3=NH2 R4=CN lg=F nu=Br rxn-id=2289 mp2_energy=-81018.03664463334 energy=-81018.03664086429 free_energy=-81018.03664086429 pbc="F F F"
C        0.78141534      -0.08812566       0.00961583      -0.00834867       0.01980052      -0.04056865      -0.00826528       0.01980539      -0.04056223
C        1.31460955       1.35544707       0.08799861      -0.02294647       0.04676374      -0.00691095      -0.02289631       0.04673876      -0.00691322
H        2.39260371       1.30926376      -0.13094234      -0.04309739      -0.03010075       0.00542236      -0.04311358      -0.03009831       0.00543435
F       -0.60859740      -0.02360281      -0.22489028      -0.03848241      -0.03853597       0.01199253      -0.03852944      -0.03854334       0.01198628
Br       4.54696152       0.50126908       1.09911938      -0.04960632       0.03044374       0.05120512      -0.04960545       0.03044249       0.05120595
C        1.41221965      -0.80309397      -1.16635059       0.01686022      -0.01317761      -0.02520943       0.01686131      -0.01317440      -0.02519745
H        0.88618163      -1.74162077      -1.34839218      -0.03313859      -0.06072908       0.02548747      -0.03314076      -0.06073227       0.02548755
H        1.35848856      -0.19913029      -2.07438350      -0.05389461       0.04636847      -0.03725695      -0.05389871       0.04636419      -0.03725654
H        2.45920034      -1.00921468      -0.94339791       0.07674435       0.02949077       0.01625681       0.07673318       0.02949152       0.01624844
C        0.97778046      -0.83496343       1.30877501      -0.01229107       0.02280000      -0.02935190      -0.01228949       0.02281380      -0.02936352
H        2.02908270      -0.80541951       1.60496290      -0.00251589      -0.00207762      -0.03379097      -0.00252065      -0.00208030      -0.03379158
H        0.36117963      -0.36746091       2.07575637       0.02510346       0.00627779       0.03931720       0.02509876       0.00627621       0.03932837
H        0.66157624      -1.87319906       1.17518513       0.00387764      -0.00497388       0.01645052       0.00387362      -0.00498273       0.01645478
N        1.07836288       1.95991907       1.40925421       0.00393009      -0.02702897      -0.01060279       0.00392055      -0.02704753      -0.01062434
H        1.13736611       2.96856762       1.31052667       0.04387602      -0.04245670       0.03414724       0.04387000      -0.04244135       0.03415298
H        1.88189927       1.68235878       1.97163529       0.02787567       0.03894681      -0.04416599       0.02788411       0.03895002      -0.04415693
C        0.65041485       2.16256854      -0.94335741       0.02076838      -0.03709218       0.05343298       0.02072488      -0.03700956       0.05334322
N        0.11780733       2.83142975      -1.74801873       0.04528561       0.01528091      -0.02585459       0.04529331       0.01522745      -0.02577609
18
Properties=species:S:1:pos:R:3:mp2_forces:R:3:forces:R:3 R1=CH3 R2=CH3 R3=NH2 R4=CN lg=F nu=Br rxn-id=2289 mp2_energy=-81018.03664463334 energy=-81018.01497203477 free_energy=-81018.03664086429 pbc="F F F"
C        0.77658322      -0.09625848       0.00614341      -0.00834867       0.01980052      -0.04056865      -0.00731210      -0.00166873      -0.00153407
C        1.30247945       1.35290560       0.08089585      -0.02294647       0.04676374      -0.00691095       0.00297304      -0.00614102       0.00069047
H        2.37297381       1.30778040      -0.16267329      -0.04309739      -0.03010075       0.00542236       0.00462433      -0.01516750       0.00814714
F       -0.61207150      -0.04715411      -0.23959718      -0.03848241      -0.03853597       0.01199253      -0.00804894       0.00500011       0.00707169
Br       4.49204823       0.49657371       1.17352289      -0.04960632       0.03044374       0.05120512       0.00095376       0.03334913       0.03123025
C        1.43465848      -0.80019608      -1.16406694       0.01686022      -0.01317761      -0.02520943      -0.01697162      -0.00110568      -0.00652535
H        0.90582592      -1.73250215      -1.37745100      -0.03313859      -0.06072908       0.02548747       0.01009808      -0.02502798       0.02403489
H        1.41665849      -0.17352462      -2.06015714      -0.05389461       0.04636847      -0.03725695      -0.06474422      -0.01560260      -0.01756737
H        2.47401330      -1.01730510      -0.90912064       0.07674435       0.02949077       0.01625681      -0.00156092       0.03857306      -0.02946119
C        0.97182470      -0.84351966       1.30415635      -0.01229107       0.02280000      -0.02935190       0.00056264      -0.00134965      -0.00243477
H        2.03598382      -0.90882202       1.53919258      -0.00251589      -0.00207762      -0.03379097       0.00189332       0.02568885       0.00508859
H        0.45686912      -0.31586599       2.10603863       0.02510346       0.00627779       0.03931720      -0.01817461      -0.01225488      -0.00606849
H        0.55036332      -1.84701649       1.19965757       0.00387764      -0.00497388       0.01645052       0.02683438      -0.01361236      -0.00445489
N        1.11081857       1.95896670       1.40764375       0.00393009      -0.02702897      -0.01060279       0.00207071      -0.00681151       0.00112637
H        1.11061895       2.96770661       1.30038740       0.04387602      -0.04245670       0.03414724       0.00854065      -0.00647137       0.00140776
H        1.96258022       1.72813350       1.91844864       0.02787567       0.03894681      -0.04416599       0.00146480      -0.01104130       0.00137595
C        0.61490423       2.16124971      -0.93105471       0.02076838      -0.03709218       0.05343298       0.02007217       0.00191572      -0.00262736
N        0.06142004       2.83384107      -1.71886971       0.04528561       0.01528091      -0.02585459       0.03672453       0.01172771      -0.00949961
18
Properties=species:S:1:pos:R:3:mp2_forces:R:3:forces:R:3 R1=CH3 R2=CH3 R3=NH2 R4=CN lg=F nu=Br rxn-id=2289 mp2_energy=-81018.03664463334 energy=-81017.98486808749 free_energy=-81018.03664086429 pbc="F F F"
C        0.78723683      -0.09830250       0.00518084      -0.00834867       0.01980052      -0.04056865      -0.01172416      -0.00177282      -0.00224438
C        1.29901123       1.35815341       0.07546091      -0.02294647       0.04676374      -0.00691095       0.00375113      -0.00843033       0.00065986
H        2.36415624       1.32729982      -0.19064752      -0.04309739      -0.03010075       0.00542236       0.00660622      -0.02235883       0.01080547
F       -0.60015461      -0.05805175      -0.25533844      -0.03848241      -0.03853597       0.01199253      -0.01239164       0.00766406       0.00821413
Br       4.47694311       0.47752598       1.17160743      -0.04960632       0.03044374       0.05120512       0.00640066       0.04247695       0.03054347
C        1.46145041      -0.80211040      -1.15760527       0.01686022      -0.01317761      -0.02520943      -0.02289291      -0.00158435      -0.00707873
H        0.89702680      -1.70029125      -1.41971900      -0.03313859      -0.06072908       0.02548747       0.01218888      -0.03891250       0.03591991
H        1.51420582      -0.15314535      -2.03618883      -0.05389461       0.04636847      -0.03725695      -0.08783167      -0.01890397      -0.02655215
H        2.47814041      -1.07516139      -0.86865360       0.07674435       0.02949077       0.01625681       0.00214941       0.05533219      -0.03275616
C        0.96592965      -0.84469072       1.30617444      -0.01229107       0.02280000      -0.02935190      -0.00167891      -0.00042393      -0.00326509
H        2.02772394      -0.97171837       1.52268843      -0.00251589      -0.00207762      -0.03379097       0.00336495       0.04999915       0.01345711
H        0.49998250      -0.28339955       2.11488124       0.02510346       0.00627779       0.03931720      -0.04084937      -0.01876592      -0.01106762
H        0.47979549      -1.81993030       1.21458549       0.00387764      -0.00497388       0.01645052       0.04588695      -0.02607120      -0.01014505
N        1.12804825       1.96216250       1.40555221       0.00393009      -0.02702897      -0.01060279       0.00281057      -0.01047256       0.00195654
H        1.09385149       2.97023192       1.29865862       0.04387602      -0.04245670       0.03414724       0.01657370      -0.00948201       0.00325719
H        1.99803680       1.75301096       1.89473995       0.02787567       0.03894681      -0.04416599      -0.00008560      -0.02052789       0.00427350
C        0.57666508       2.15831803      -0.91968787       0.02076838      -0.03709218       0.05343298       0.02872071       0.00254070      -0.00155570
N       -0.00949707       2.82509152      -1.68859259       0.04528561       0.01528091      -0.02585459       0.04900109       0.01969325      -0.01442231
18
Properties=species:S:1:pos:R:3:mp2_forces:R:3:forces:R:3 R1=CH3 R2=CH3 R3=NH2 R4=CN lg=F nu=Br rxn-id=2289 mp2_energy=-81018.03664463334 energy=-81017.94527628072 free_energy=-81018.03664086429 pbc="F F F"
C        0.79827197      -0.10049895       0.00457001      -0.00834867       0.01980052      -0.04056865      -0.01536266      -0.00145619      -0.00265007
C        1.29532992       1.36318997       0.07075420      -0.02294647       0.04676374      -0.00691095       0.00529883      -0.01023751       0.00077536
H        2.35568646       1.34657663      -0.21337413      -0.04309739      -0.03010075       0.00542236       0.00948489      -0.02867771       0.01340157
F       -0.58826597      -0.06883303      -0.26759971      -0.03848241      -0.03853597       0.01199253      -0.01601190       0.01118315       0.01002914
Br       4.46112834       0.46424868       1.17135039      -0.04960632       0.03044374       0.05120512       0.01361386       0.05082450       0.03150797
C        1.48490504      -0.80427579      -1.15326011       0.01686022      -0.01317761      -0.02520943      -0.02853496      -0.00199052      -0.00736923
H        0.88752502      -1.66495616      -1.46297020      -0.03313859      -0.06072908       0.02548747       0.01023290      -0.05212597       0.04650218
H        1.60479379      -0.13655696      -2.01085046      -0.05389461       0.04636847      -0.03725695      -0.10756048      -0.01973172      -0.03576130
H        2.47623033      -1.13417797      -0.83804354       0.07674435       0.02949077       0.01625681       0.00656595       0.06831751      -0.03363557
C        0.96372258      -0.84597682       1.30872382      -0.01229107       0.02280000      -0.02935190      -0.00369724       0.00006659      -0.00455115
H        2.01921295      -1.03629954       1.50494375      -0.00251589      -0.00207762      -0.03379097       0.00819214       0.07221879       0.02036571
H        0.55116666      -0.25415892       2.12438623       0.02510346       0.00627779       0.03931720      -0.06330463      -0.02328637      -0.01492422
H        0.41436431      -1.78851259       1.23316587       0.00387764      -0.00497388       0.01645052       0.06127581      -0.04044420      -0.01847297
N        1.13954296       1.96604291       1.40289263       0.00393009      -0.02702897      -0.01060279       0.00368995      -0.01334497       0.00260257
H        1.07695371       2.97274023       1.29689763       0.04387602      -0.04245670       0.03414724       0.02294223      -0.01155206       0.00455616
H        2.02315507       1.77535540       1.87507097       0.02787567       0.03894681      -0.04416599      -0.00114926      -0.02806174       0.00732285
C        0.54371791       2.15484978      -0.91039226       0.02076838      -0.03709218       0.05343298       0.03628243       0.00313753      -0.00107069
N       -0.06888868       2.81623572      -1.66316863       0.04528561       0.01528091      -0.02585459       0.05804213       0.02516088      -0.01862830
18
Properties=species:S:1:pos:R:3:mp2_forces:R:3:forces:R:3 R1=CH3 R2=CH3 R3=NH2 R4=CN lg=F nu=Br rxn-id=2289 mp2_energy=-81018.03664463334 energy=-81017.89871900603 free_energy=-81018.03664086429 pbc="F F F"
C        0.80935665      -0.10264259       0.00431929      -0.00834867       0.01980052      -0.04056865      -0.01842949      -0.00096996      -0.00284560
C        1.29119416       1.36819362       0.06681298      -0.02294647       0.04676374      -0.00691095       0.00713778      -0.01159993       0.00099901
H        2.34729446       1.36569482      -0.23170982      -0.04309739      -0.03010075       0.00542236       0.01287353      -0.03421686       0.01633052
F       -0.57662895      -0.07957993      -0.27732807      -0.03848241      -0.03853597       0.01199253      -0.01913530       0.01500760       0.01229930
Br       4.44300191       0.45321102       1.17009447      -0.04960632       0.03044374       0.05120512       0.02339727       0.05884119       0.03452085
C        1.50593422      -0.80631559      -1.15030980       0.01686022      -0.01317761      -0.02520943      -0.03365855      -0.00240073      -0.00758684
H        0.87936235      -1.62755178      -1.50533310      -0.03313859      -0.06072908       0.02548747       0.00504715      -0.06342592       0.05424489
H        1.68857551      -0.12370888      -1.98468779      -0.05389461       0.04636847      -0.03725695      -0.12246229      -0.01858567      -0.04438706
H        2.46997917      -1.19160611      -0.81525433       0.07674435       0.02949077       0.01625681       0.01058833       0.07657534      -0.03230219
C        0.96437376      -0.84720274       1.31183123      -0.01229107       0.02280000      -0.02935190      -0.00540290      -0.00000989      -0.00612883
H        2.00947080      -1.10063266       1.48701734      -0.00251589      -0.00207762      -0.03379097       0.01557168       0.08948963       0.02434127
H        0.60767123      -0.22888284       2.13388987       0.02510346       0.00627779       0.03931720      -0.08245679      -0.02537942      -0.01702609
H        0.35536607      -1.75364961       1.25476784       0.00387764      -0.00497388       0.01645052       0.07112308      -0.05485388      -0.02752553
N        1.14626850       1.97043517       1.40021954       0.00393009      -0.02702897      -0.01060279       0.00431388      -0.01509820       0.00294543
H        1.06062559       2.97547110       1.29530285       0.04387602      -0.04245670       0.03414724       0.02712274      -0.01261332       0.00488062
H        2.04004618       1.79509028       1.85916637       0.02787567       0.03894681      -0.04416599      -0.00200698      -0.03284603       0.01006815
C        0.51507260       2.15116856      -0.90295011       0.02076838      -0.03709218       0.05343298       0.04257277       0.00354652      -0.00100120
N       -0.11841183       2.80750076      -1.64275233       0.04528561       0.01528091      -0.02585459       0.06380409       0.02853953      -0.02182671
18
Properties=species:S:1:pos:R:3:mp2_forces:R:3:forces:R:3 R1=CH3 R2=CH3 R3=NH2 R4=CN lg=F nu=Br rxn-id=2289 mp2_energy=-81018.03664463334 energy=-81017.84688165986 free_energy=-81018.03664086429 pbc="F F F"
C        0.82101505      -0.10441344       0.00446715      -0.00834867       0.01980052      -0.04056865      -0.02230431      -0.00078043      -0.00322992
C        1.28654986       1.37374412       0.06341493      -0.02294647       0.04676374      -0.00691095       0.00831376      -0.01308207       0.00115644
H        2.33854929       1.38591920      -0.24759564      -0.04309739      -0.03010075       0.00542236       0.01599213      -0.04067813       0.01982890
F       -0.56457495      -0.09047613      -0.28573594      -0.03848241      -0.03853597       0.01199253      -0.02304870       0.01809993       0.01435855
Br       4.41990361       0.44000078       1.16550345      -0.04960632       0.03044374       0.05120512       0.03678042       0.06701902       0.03998561
C        1.52619493      -0.80798208      -1.14789116       0.01686022      -0.01317761      -0.02520943      -0.03837998      -0.00268824      -0.00782433
H        0.87392164      -1.58818449      -1.54589420      -0.03313859      -0.06072908       0.02548747      -0.00145212      -0.07226627       0.05741389
H        1.76802427      -0.11411207      -1.95740064      -0.05389461       0.04636847      -0.03725695      -0.13175648      -0.01552933      -0.05126991
H        2.46122456      -1.24672356      -0.79793934       0.07674435       0.02949077       0.01625681       0.01314307       0.08106666      -0.02799532
C        0.96709558      -0.84809172       1.31556745      -0.01229107       0.02280000      -0.02935190      -0.00692641      -0.00038248      -0.00792025
H        1.99762837      -1.16374502       1.47029231      -0.00251589      -0.00207762      -0.03379097       0.02442650       0.10130102       0.02375929
H        0.66716964      -0.20754637       2.14296610       0.02510346       0.00627779       0.03931720      -0.09589707      -0.02454097      -0.01769151
H        0.30261739      -1.71566265       1.27824954       0.00387764      -0.00497388       0.01645052       0.07539732      -0.06783096      -0.03417475
N        1.14963725       1.97552712       1.39774397       0.00393009      -0.02702897      -0.01060279       0.00448167      -0.01612827       0.00285491
H        1.04617338       2.97896685       1.29400183       0.04387602      -0.04245670       0.03414724       0.02939956      -0.01319179       0.00405745
H        2.05097364       1.81219354       1.84636989       0.02787567       0.03894681      -0.04416599      -0.00271619      -0.03542038       0.01178292
C        0.48857269       2.14737318      -0.89669335       0.02076838      -0.03709218       0.05343298       0.04768246       0.00386445      -0.00128262
N       -0.16212381       2.79820531      -1.62632989       0.04528561       0.01528091      -0.02585459       0.06686437       0.03116825      -0.02380937
18
Properties=species:S:1:pos:R:3:mp2_forces:R:3:forces:R:3 R1=CH3 R2=CH3 R3=NH2 R4=CN lg=F nu=Br rxn-id=2289 mp2_energy=-81018.03664463334 energy=-81017.79025272401 free_energy=-81018.03664086429 pbc="F F F"
C        0.83440823      -0.10533653       0.00519366      -0.00834867       0.01980052      -0.04056865      -0.02903847      -0.00138330      -0.00440360
C        1.28158915       1.38069887       0.06043776      -0.02294647       0.04676374      -0.00691095       0.00766342      -0.01552809       0.00097425
H        2.32916546       1.40938037      -0.26269148      -0.04309739      -0.03010075       0.00542236       0.01806797      -0.05082638       0.02416064
F       -0.55084701      -0.10139068      -0.29370620      -0.03848241      -0.03853597       0.01199253      -0.02960440       0.01898714       0.01528420
Br       4.38969917       0.41959098       1.15499471      -0.04960632       0.03044374       0.05120512       0.05337535       0.07580174       0.04784103
C        1.54741727      -0.80906660      -1.14523099       0.01686022      -0.01317761      -0.02520943      -0.04301850      -0.00266966      -0.00796547
H        0.87198067      -1.54629402      -1.58392586      -0.03313859      -0.06072908       0.02548747      -0.00703433      -0.07842040       0.05414800
H        1.84603517      -0.10741815      -1.92842884      -0.05389461       0.04636847      -0.03725695      -0.13479713      -0.01020847      -0.05437743
H        2.45146038      -1.29992802      -0.78450219       0.07674435       0.02949077       0.01625681       0.01328365       0.08332147      -0.01922392
C        0.97138022      -0.84844785       1.32001338      -0.01229107       0.02280000      -0.02935190      -0.00836915      -0.00041098      -0.01000432
H        1.98298367      -1.22560479       1.45607248      -0.00251589      -0.00207762      -0.03379097       0.03412549       0.10925460       0.01724837
H        0.72808972      -0.19010060       2.15165765       0.02510346       0.00627779       0.03931720      -0.10165299      -0.01999798      -0.01828419
H        0.25522996      -1.67438847       1.30194807       0.00387764      -0.00497388       0.01645052       0.07541240      -0.07841650      -0.03489783
N        1.15056455       1.98193041       1.39557094       0.00393009      -0.02702897      -0.01060279       0.00418029      -0.01738747       0.00219650
H        1.03424959       2.98408583       1.29296307       0.04387602      -0.04245670       0.03414724       0.03048273      -0.01422094       0.00233688
H        2.05724874       1.82728600       1.83654182       0.02787567       0.03894681      -0.04416599      -0.00305474      -0.03758312       0.01142391
C        0.46212999       2.14327921      -0.89091233       0.02076838      -0.03709218       0.05343298       0.05177610       0.00470131      -0.00222399
N       -0.20423254       2.78671662      -1.61289920       0.04528561       0.01528091      -0.02585459       0.06820230       0.03498703      -0.02423302
18
Properties=species:S:1:pos:R:3:mp2_forces:R:3:forces:R:3 R1=CH3 R2=CH3 R3=NH2 R4=CN lg=F nu=Br rxn-id=2289 mp2_energy=-81018.03664463334 energy=-81017.72771806114 free_energy=-81018.03664086429 pbc="F F F"
C        0.85177236      -0.10471464       0.00702464      -0.00834867       0.01980052      -0.04056865      -0.04255466      -0.00327820      -0.00745329
C        1.27705085       1.39029017       0.05800378      -0.02294647       0.04676374      -0.00691095       0.00340463      -0.02009809       0.00006418
H        2.31921973       1.43957016      -0.27834209      -0.04309739      -0.03010075       0.00542236       0.01857841      -0.06960322       0.03052259
F       -0.53325102      -0.11159110      -0.30150881      -0.03848241      -0.03853597       0.01199253      -0.04205520       0.01588615       0.01335486
Br       4.35200549       0.38589489       1.13484837      -0.04960632       0.03044374       0.05120512       0.07384414       0.08598916       0.05750238
C        1.57145089      -0.80930440      -1.14168027       0.01686022      -0.01317761      -0.02520943      -0.04853660      -0.00210252      -0.00768691
H        0.87351454      -1.50040444      -1.61825944      -0.03313859      -0.06072908       0.02548747      -0.00845148      -0.08258300       0.04129993
H        1.92540589      -0.10355371      -1.89735532      -0.05389461       0.04636847      -0.03725695      -0.13068604      -0.00194201      -0.05002710
H        2.44190731      -1.35257917      -0.77474966       0.07674435       0.02949077       0.01625681       0.00958490       0.08538817      -0.00294315
C        0.97687422      -0.84827441       1.32541442      -0.01229107       0.02280000      -0.02935190      -0.01032969       0.00094086      -0.01276404
H        1.96455814      -1.28709633       1.44655353      -0.00251589      -0.00207762      -0.03379097       0.04493348       0.11733573       0.00245625
H        0.78820620      -0.17702601       2.16053439       0.02510346       0.00627779       0.03931720      -0.09757222      -0.01068582      -0.02096727
H        0.21196051      -1.62933745       1.32295085       0.00387764      -0.00497388       0.01645052       0.07327841      -0.08697333      -0.02485926
N        1.14938798       1.99083659       1.39382257       0.00393009      -0.02702897      -0.01060279       0.00337499      -0.02018206       0.00087174
H        1.02452183       2.99209989       1.29190375       0.04387602      -0.04245670       0.03414724       0.03115252      -0.01680492       0.00059585
H        2.05904769       1.84217825       1.83059747       0.02787567       0.03894681      -0.04416599      -0.00248114      -0.04190450       0.00735170
C        0.43386892       2.13817034      -0.88486541       0.02076838      -0.03709218       0.05343298       0.05583706       0.00726626      -0.00437116
N       -0.24894915       2.76983394      -1.60179630       0.04528561       0.01528091      -0.02585459       0.06867851       0.04335135      -0.02294730
18
Properties=species:S:1:pos:R:3:mp2_forces:R:3:forces:R:3 R1=CH3 R2=CH3 R3=NH2 R4=CN lg=F nu=Br rxn-id=2289 mp2_energy=-81018.03664463334 energy=-81017.65155385336 free_energy=-81018.03664086429 pbc="F F F"
C        0.87956002      -0.10126631       0.01175550      -0.00834867       0.01980052      -0.04056865      -0.07539325      -0.00730622      -0.01585962
C        1.27575615       1.40497371       0.05682511      -0.02294647       0.04676374      -0.00691095      -0.00903201      -0.02900429      -0.00241968
H        2.31003991       1.48462985      -0.29607042      -0.04309739      -0.03010075       0.00542236       0.01729642      -0.11004617       0.04288425
F       -0.50597628      -0.11878339      -0.30781488      -0.03848241      -0.03853597       0.01199253      -0.07003239       0.00599317       0.00389321
Br       4.30360210       0.33057764       1.09736521      -0.04960632       0.03044374       0.05120512       0.11341868       0.09884893       0.07134867
C        1.60136950      -0.80842147      -1.13673121       0.01686022      -0.01317761      -0.02520943      -0.05885469      -0.00046236      -0.00685965
H        0.87615677      -1.44653013      -1.64512828      -0.03313859      -0.06072908       0.02548747       0.00235620      -0.08980237       0.00810109
H        2.00887557      -0.10328251      -1.86519975      -0.05389461       0.04636847      -0.03725695      -0.11837602       0.01030174      -0.03127005
H        2.43430524      -1.40859293      -0.77244072       0.07674435       0.02949077       0.01625681      -0.00164237       0.09333675       0.03026528
C        0.98379075      -0.84840364       1.33273967      -0.01229107       0.02280000      -0.02935190      -0.01582057       0.00589278      -0.01768031
H        1.94009326      -1.35224527       1.44806868      -0.00251589      -0.00207762      -0.03379097       0.06022894       0.13660036      -0.02987952
H        0.84242562      -0.17047083       2.17150394       0.02510346       0.00627779       0.03931720      -0.07984760       0.00536865      -0.02829733
H        0.17084954      -1.57918660       1.33390731       0.00387764      -0.00497388       0.01645052       0.07111018      -0.09816191       0.00888012
N        1.14629040       2.00489636       1.39282742       0.00393009      -0.02702897      -0.01060279       0.00148640      -0.02661926      -0.00119542
H        1.01499280       3.00540938       1.29018963       0.04387602      -0.04245670       0.03414724       0.03252631      -0.02244473       0.00069215
H        2.05565492       1.86175266       1.83135104       0.02787567       0.03894681      -0.04416599      -0.00034253      -0.05223141      -0.00305598
C        0.40199195       2.12967773      -0.87736190       0.02076838      -0.03709218       0.05343298       0.06271799       0.01691022      -0.00911229
N       -0.30122584       2.74025831      -1.59268988       0.04528561       0.01528091      -0.02585459       0.06820029       0.06282611      -0.02043494
18
Properties=species:S:1:pos:R:3:mp2_forces:R:3:forces:R:3 R1=CH3 R2=CH3 R3=NH2 R4=CN lg=F nu=Br rxn-id=2289 mp2_energy=-81018.03664463334 energy=-81017.54016008282 free_energy=-81018.03664086429 pbc="F F F"
C        0.92764927      -0.09452787       0.02284393      -0.00834867       0.01980052      -0.04056865      -0.15695325      -0.01286997      -0.03819711
C        1.28434662       1.42527955       0.05871585      -0.02294647       0.04676374      -0.00691095      -0.03580231      -0.04068824      -0.00876876
H        2.30558080       1.55228489      -0.31590093      -0.04309739      -0.03010075       0.00542236       0.02130718      -0.19373178       0.06931875
F       -0.46180048      -0.11772691      -0.30665608      -0.03848241      -0.03853597       0.01199253      -0.12676293      -0.01186275      -0.02020176
Br       4.23452638       0.26218247       1.04000767      -0.04960632       0.03044374       0.05120512       0.21311917       0.11080807       0.10040640
C        1.63662990      -0.80730095      -1.13151729       0.01686022      -0.01317761      -0.02520943      -0.08477146       0.00264996      -0.00735908
H        0.87057024      -1.38649073      -1.64963377      -0.03313859      -0.06072908       0.02548747       0.03923146      -0.12078025      -0.07553391
H        2.08277691      -0.10901471      -1.84365742      -0.05389461       0.04636847      -0.03725695      -0.10007137       0.02636051       0.00714514
H        2.43265040      -1.46779230      -0.79015429       0.07674435       0.02949077       0.01625681      -0.02315913       0.12242811       0.09999174
C        0.99318515      -0.85191418       1.34303846      -0.01229107       0.02280000      -0.02935190      -0.03228595       0.01699649      -0.02824157
H        1.90903451      -1.42245046       1.47296437      -0.00251589      -0.00207762      -0.03379097       0.09180890       0.18510375      -0.09759089
H        0.87504529      -0.17552916       2.18661260       0.02510346       0.00627779       0.03931720      -0.04525654       0.02708984      -0.03929986
H        0.13557362      -1.52870532       1.31824037       0.00387764      -0.00497388       0.01645052       0.06560434      -0.13052589       0.09610260
N        1.14348424       2.02465828       1.39354125       0.00393009      -0.02702897      -0.01060279      -0.00191227      -0.03574195      -0.00376392
H        1.00196704       3.02356838       1.28726585       0.04387602      -0.04245670       0.03414724       0.03744111      -0.02862457       0.00765352
H        2.04901230       1.89166967       1.84156249       0.02787567       0.03894681      -0.04416599       0.00312792      -0.07083573      -0.01944520