14
Properties=species:S:1:pos:R:3:mp2_forces:R:3:forces:R:3 R1=H R2=NH2 R3=NH2 R4=CN lg=F nu=Cl rxn-id=834 mp2_energy=-22884.27871429549 energy=-22884.278722052368 free_energy=-22884.278722052368 pbc="F F F"
C        0.70048193       0.05293503       0.09577738      -0.01486198       0.02685499      -0.00534287      -0.01481736       0.02680686      -0.00528697
C        1.01960487       1.53731141      -0.10129516       0.00267350       0.02164216      -0.03151742       0.00264472       0.02175065      -0.03143959
H        2.10853703       1.59549069      -0.19802430       0.01272112      -0.00201863      -0.02500811       0.01273808      -0.00203334      -0.02502484
F       -0.68097762      -0.07432166       0.29387711      -0.00470610       0.02605092      -0.00258201      -0.00474663       0.02604841      -0.00260189
Cl       3.89337088      -0.41617359      -0.79721064      -0.01316481      -0.00168051       0.08792585      -0.01316465      -0.00167914       0.08792386
H        0.95255161      -0.52114067      -0.80034878      -0.03314406      -0.00483289       0.01205327      -0.03314796      -0.00483517       0.01202443
N        1.35967189      -0.38955875       1.29495992       0.02019916      -0.01227438       0.00405075       0.02020884      -0.01231050       0.00405627
H        2.33663792      -0.51449596       1.01663997       0.04772048       0.02219827      -0.00811756       0.04770538       0.02221246      -0.00811222
H        1.00086099      -1.30973013       1.52387852      -0.00515700      -0.03600486      -0.03329327      -0.00515073      -0.03597406      -0.03330685
N        0.57179850       2.38318649       1.00613194       0.00381525      -0.02230284      -0.00680800       0.00378916      -0.02235727      -0.00676710
H        0.98798825       1.97107733       1.83608608       0.01465040      -0.00245874      -0.00170118       0.01465079      -0.00244883      -0.00172370
H       -0.42929826       2.24146619       1.10302346       0.00609622      -0.01037917      -0.00036794       0.00613531      -0.01037465      -0.00038506
C        0.43084098       2.02005324      -1.35621808       0.01654269      -0.03695090       0.05037031       0.01639157      -0.03687660       0.05018625
N       -0.05901027       2.39310231      -2.35442663      -0.05338488       0.03215659      -0.03966180      -0.05323651       0.03207119      -0.03954258
14
Properties=species:S:1:pos:R:3:mp2_forces:R:3:forces:R:3 R1=H R2=NH2 R3=NH2 R4=CN lg=F nu=Cl rxn-id=834 mp2_energy=-22884.27871429549 energy=-22884.282759127116 free_energy=-22884.278722052368 pbc="F F F"
C        0.71031655       0.05309144       0.08871512      -0.01486198       0.02685499      -0.00534287      -0.01227950      -0.00386712      -0.00220089
C        1.01828664       1.53683708      -0.10573570       0.00267350       0.02164216      -0.03151742      -0.00334517      -0.00552057      -0.00609403
H        2.10719808       1.60153982      -0.19533906       0.01272112      -0.00201863      -0.02500811      -0.00304305      -0.01509034      -0.01771370
F       -0.67235822      -0.08339233       0.27663973      -0.00470610       0.02605092      -0.00258201      -0.01278353      -0.00020629      -0.00503474
Cl       3.84871189      -0.37315759      -0.81476890      -0.01316481      -0.00168051       0.08792585       0.02140306      -0.00353024       0.05288253
H        0.97274023      -0.51985093      -0.80416517      -0.03314406      -0.00483289       0.01205327      -0.01417656      -0.00765866      -0.00038094
N        1.35644228      -0.38391002       1.29918237       0.02019916      -0.01227438       0.00405075      -0.01720119      -0.00483938      -0.00025302
H        2.32816356      -0.55177106       1.02604136       0.04772048       0.02219827      -0.00811756      -0.00152612       0.04747822       0.00854343
H        0.95178379      -1.27683292       1.55853968      -0.00515700      -0.03600486      -0.03329327       0.02572371      -0.03589505      -0.03903089
N        0.55793378       2.37516403       1.00176101       0.00381525      -0.02230284      -0.00680800       0.01725666       0.00281279      -0.00275722
H        1.03814031       2.01628143       1.82102968       0.01465040      -0.00245874      -0.00170118       0.01782990      -0.00080992      -0.00316400
H       -0.42424489       2.15914105       1.14558368       0.00609622      -0.01037917      -0.00036794       0.01476323       0.02132496       0.00470095
C        0.43738807       2.01931464      -1.36502721       0.01654269      -0.03695090       0.05037031      -0.00957408      -0.00333337       0.00879384
N       -0.03744337       2.39674729      -2.36960580      -0.05338488       0.03215659      -0.03966180      -0.02304734       0.00913497       0.00170866
14
Properties=species:S:1:pos:R:3:mp2_forces:R:3:forces:R:3 R1=H R2=NH2 R3=NH2 R4=CN lg=F nu=Cl rxn-id=834 mp2_energy=-22884.27871429549 energy=-22884.264222124006 free_energy=-22884.278722052368 pbc="F F F"
C        0.72679611       0.05588228       0.08834340      -0.01486198       0.02685499      -0.00534287      -0.01544036      -0.00391900      -0.00162608
C        1.01948090       1.54300516      -0.10061331       0.00267350       0.02164216      -0.03151742      -0.00333010      -0.00621634      -0.00644600
H        2.10822554       1.62059836      -0.17723413       0.01272112      -0.00201863      -0.02500811      -0.00265990      -0.01892351      -0.02015289
F       -0.65598866      -0.09312969       0.26941264      -0.00470610       0.02605092      -0.00258201      -0.01537646       0.00003884      -0.00365609
Cl       3.81739356      -0.36415811      -0.88444997      -0.01316481      -0.00168051       0.08792585       0.02335005      -0.01568930       0.06202402
H        1.00251127      -0.51243882      -0.80262697      -0.03314406      -0.00483289       0.01205327      -0.01797879      -0.01004103       0.00195173
N        1.36836888      -0.37886475       1.30409420       0.02019916      -0.01227438       0.00405075      -0.02314614      -0.00372219       0.00265166
H        2.32496223      -0.60935553       1.02800779       0.04772048       0.02219827      -0.00811756       0.00547612       0.07451674       0.01173007
H        0.91087455      -1.23181560       1.60503617      -0.00515700      -0.03600486      -0.03329327       0.03592579      -0.05757891      -0.05684342
N        0.53634545       2.37207576       1.00378663       0.00381525      -0.02230284      -0.00680800       0.02065349       0.00528052      -0.00314100
H        1.03324250       2.03426888       1.82190507       0.01465040      -0.00245874      -0.00170118       0.01604604      -0.00490258      -0.00141211
H       -0.43676280       2.12182149       1.15435168       0.00609622      -0.01037917      -0.00036794       0.01537994       0.03308947       0.00093202
C        0.45025445       2.02027844      -1.36729862       0.01654269      -0.03695090       0.05037031      -0.01108007      -0.00320288       0.01076092
N       -0.01264528       2.39103406      -2.37986378      -0.05338488       0.03215659      -0.03966180      -0.02781960       0.01127018       0.00322718
14
Properties=species:S:1:pos:R:3:mp2_forces:R:3:forces:R:3 R1=H R2=NH2 R3=NH2 R4=CN lg=F nu=Cl rxn-id=834 mp2_energy=-22884.27871429549 energy=-22884.237788331942 free_energy=-22884.278722052368 pbc="F F F"
C        0.74525901       0.05818602       0.08718407      -0.01486198       0.02685499      -0.00534287      -0.02076501      -0.00367757      -0.00123893
C        1.02202145       1.54880876      -0.09675342       0.00267350       0.02164216      -0.03151742      -0.00522084      -0.00708555      -0.00589675
H        2.11006796       1.64097342      -0.16158537       0.01272112      -0.00201863      -0.02500811      -0.00356580      -0.02727876      -0.02118366
F       -0.63812826      -0.10152610       0.26187432      -0.00470610       0.02605092      -0.00258201      -0.01911408      -0.00238044      -0.00424020
Cl       3.78747414      -0.34909062      -0.95150398      -0.01316481      -0.00168051       0.08792585       0.03313974      -0.02892891       0.06588525
H        1.03295494      -0.50559322      -0.80192287      -0.03314406      -0.00483289       0.01205327      -0.01996128      -0.01104903       0.00449435
N        1.38271522      -0.37566522       1.30740962       0.02019916      -0.01227438       0.00405075      -0.03008127       0.00032616       0.00603941
H        2.31686148      -0.67932769       1.03109110       0.04772048       0.02219827      -0.00811756       0.01534565       0.10399479       0.01234769
H        0.86823369      -1.17560503       1.65624394      -0.00515700      -0.03600486      -0.03329327       0.04014588      -0.08223967      -0.07172482
N        0.51601040       2.36708175       1.00518025       0.00381525      -0.02230284      -0.00680800       0.02395701       0.00900882      -0.00262307
H        1.02725683       2.04906581       1.82227990       0.01465040      -0.00245874      -0.00170118       0.01585151      -0.00758210       0.00084919
H       -0.44730936       2.08370138       1.16040628       0.00609622      -0.01037917      -0.00036794       0.01488125       0.04739635       0.00054705
C        0.46180588       2.02131774      -1.36929775       0.01654269      -0.03695090       0.05037031      -0.01327159      -0.00254810       0.01242565
N        0.00783534       2.38687492      -2.38775530      -0.05338488       0.03215659      -0.03966180      -0.03134118       0.01204401       0.00431885
14
Properties=species:S:1:pos:R:3:mp2_forces:R:3:forces:R:3 R1=H R2=NH2 R3=NH2 R4=CN lg=F nu=Cl rxn-id=834 mp2_energy=-22884.27871429549 energy=-22884.20164072037 free_energy=-22884.278722052368 pbc="F F F"
C        0.76683258       0.06108170       0.08611148      -0.01486198       0.02685499      -0.00534287      -0.03295763      -0.00485983      -0.00213177
C        1.02987779       1.55495919      -0.09463332       0.00267350       0.02164216      -0.03151742      -0.01512003      -0.01055467      -0.00239100
H        2.11626146       1.66695181      -0.14831552       0.01272112      -0.00201863      -0.02500811      -0.01009283      -0.05457494      -0.01755633
F       -0.61864169      -0.10064094       0.25798767      -0.00470610       0.02605092      -0.00258201      -0.02753564      -0.01760587      -0.01359886
Cl       3.75161957      -0.32360988      -1.01272237      -0.01316481      -0.00168051       0.08792585       0.06222864      -0.04498031       0.05845100
H        1.05894565      -0.50104558      -0.80135933      -0.03314406      -0.00483289       0.01205327      -0.01360595      -0.00738640       0.00627360
N        1.39926187      -0.37569495       1.30945719       0.02019916      -0.01227438       0.00405075      -0.03804886       0.00854014       0.00812118
H        2.30232076      -0.76019847       1.03726777       0.04772048       0.02219827      -0.00811756       0.02626031       0.13531589       0.00476298
H        0.82681452      -1.11025988       1.70693043      -0.00515700      -0.03600486      -0.03329327       0.04121285      -0.10394230      -0.07684073
N        0.49687368       2.35879950       1.00513825       0.00381525      -0.02230284      -0.00680800       0.02756524       0.01659468       0.00060271
H        1.01950998       2.05905132       1.82195328       0.01465040      -0.00245874      -0.00170118       0.01849298      -0.00481423       0.00488731
H       -0.45452337       2.03730943       1.16013024       0.00609622      -0.01037917      -0.00036794       0.01004474       0.07658065       0.01001432
C        0.47457903       2.02134198      -1.37169309       0.01654269      -0.03695090       0.05037031      -0.01761176      -0.00078970       0.01455053
N        0.02332687       2.38115671      -2.39340191      -0.05338488       0.03215659      -0.03966180      -0.03083205       0.01247688       0.00485506
14
Properties=species:S:1:pos:R:3:mp2_forces:R:3:forces:R:3 R1=H R2=NH2 R3=NH2 R4=CN lg=F nu=Cl rxn-id=834 mp2_energy=-22884.27871429549 energy=-22884.153387078033 free_energy=-22884.278722052368 pbc="F F F"
C        0.78993822       0.06664148       0.08573077      -0.01486198       0.02685499      -0.00534287      -0.05803976      -0.01035200      -0.00257710
C        1.04694740       1.56310804      -0.09442574       0.00267350       0.02164216      -0.03151742      -0.04127194      -0.02051097       0.00553446
H        2.13017205       1.70286719      -0.13641269       0.01272112      -0.00201863      -0.02500811      -0.02800444      -0.11698948      -0.00896404
F       -0.59943445      -0.07988110       0.26697530      -0.00470610       0.02605092      -0.00258201      -0.04623264      -0.05452498      -0.04310140
Cl       3.70619290      -0.28589328      -1.05548979      -0.01316481      -0.00168051       0.08792585       0.12168337      -0.06550139       0.03304538
H        1.06597825      -0.50075212      -0.80200476      -0.03314406      -0.00483289       0.01205327       0.01601647       0.00722232       0.00867341
N        1.41644214      -0.37967936       1.30915885       0.02019916      -0.01227438       0.00405075      -0.04863518       0.01774622       0.00972227
H        2.28411672      -0.83950912       1.04528076       0.04772048       0.02219827      -0.00811756       0.03486081       0.16691568      -0.01832035
H        0.79217113      -1.04840055       1.74218856      -0.00515700      -0.03600486      -0.03329327       0.04862782      -0.12423268      -0.05656153
N        0.47986864       2.34644906       1.00346151       0.00381525      -0.02230284      -0.00680800       0.03125931       0.03327457       0.00626597
H        1.01045238       2.06342439       1.82136832       0.01465040      -0.00245874      -0.00170118       0.02580884       0.00761670       0.00799446
H       -0.45490949       1.97617839       1.15115382       0.00609622      -0.01037917      -0.00036794      -0.00522609       0.13808028       0.03601973
C        0.49165712       2.01925064      -1.37537707       0.01654269      -0.03695090       0.05037031      -0.02767082       0.00068448       0.01709526
N        0.03346568       2.36539826      -2.39875705      -0.05338488       0.03215659      -0.03966180      -0.02317575       0.02057126       0.00517349
14
Properties=species:S:1:pos:R:3:mp2_forces:R:3:forces:R:3 R1=H R2=NH2 R3=NH2 R4=CN lg=F nu=Cl rxn-id=834 mp2_energy=-22884.27871429549 energy=-22884.09189505011 free_energy=-22884.278722052368 pbc="F F F"
C        0.81130283       0.07314771       0.08276139      -0.01486198       0.02685499      -0.00534287      -0.09712673      -0.01698018       0.00475317
C        1.06336732       1.57312502      -0.09552815       0.00267350       0.02164216      -0.03151742      -0.07234820      -0.03520618       0.01428129
H        2.14226579       1.74259358      -0.12597120       0.01272112      -0.00201863      -0.02500811      -0.04504368      -0.19119390      -0.00735646
F       -0.58120912      -0.05679631       0.28600986      -0.00470610       0.02605092      -0.00258201      -0.07588701      -0.08227568      -0.08857318
Cl       3.65816530      -0.25593567      -1.06253247      -0.01316481      -0.00168051       0.08792585       0.21772698      -0.08779327      -0.01719920
H        1.05531400      -0.50023287      -0.80909430      -0.03314406      -0.00483289       0.01205327       0.07163198       0.02622582       0.02087999
N        1.43697065      -0.38457348       1.30187496       0.02019916      -0.01227438       0.00405075      -0.07201309       0.02039157       0.01706178
H        2.26988621      -0.90704738       1.04737320       0.04772048       0.02219827      -0.00811756       0.03336011       0.20077097      -0.06041757
H        0.77055915      -0.99415645       1.75722082      -0.00515700      -0.03600486      -0.03329327       0.06218187      -0.16059295       0.00401881
N        0.46574424       2.33357872       1.00262994       0.00381525      -0.02230284      -0.00680800       0.03300452       0.05586382       0.00982141
H        1.00430359       2.06544193       1.82070460       0.01465040      -0.00245874      -0.00170118       0.03217630       0.02502243       0.00717815
H       -0.45042422       1.91718774       1.14345235       0.00609622      -0.01037917      -0.00036794      -0.02995978       0.20865194       0.06625984
C        0.50649456       2.01832494      -1.37983511       0.01654269      -0.03695090       0.05037031      -0.04155959      -0.00045126       0.02174070
N        0.04031839       2.34454445      -2.40621512      -0.05338488       0.03215659      -0.03966180      -0.01614369       0.03756687       0.00755127
14
Properties=species:S:1:pos:R:3:mp2_forces:R:3:forces:R:3 R1=H R2=NH2 R3=NH2 R4=CN lg=F nu=Cl rxn-id=834 mp2_energy=-22884.27871429549 energy=-22883.962213105548 free_energy=-22884.278722052368 pbc="F F F"
C        0.84664424       0.07867978       0.07591873      -0.01486198       0.02685499      -0.00534287      -0.20979395      -0.02143906       0.02946900
C        1.08376298       1.58666288      -0.10016502       0.00267350       0.02164216      -0.03151742      -0.12013066      -0.06062512       0.02591659
H        2.15282217       1.80792836      -0.12048885       0.01272112      -0.00201863      -0.02500811      -0.05416072      -0.32796053      -0.00115247
F       -0.55189932      -0.03626195       0.31190055      -0.00470610       0.02605092      -0.00258201      -0.10803963      -0.09266824      -0.15153760
Cl       3.58146794      -0.22947835      -1.04712184      -0.01316481      -0.00168051       0.08792585       0.43141720      -0.12121814      -0.12947263
H        1.03621175      -0.50202992      -0.82192966      -0.03314406      -0.00483289       0.01205327       0.18616547       0.04907633       0.03919946
N        1.46947031      -0.39249149       1.29114176       0.02019916      -0.01227438       0.00405075      -0.13633792       0.02728506       0.02367293
H        2.25412392      -0.99419791       1.06270526       0.04772048       0.02219827      -0.00811756       0.00265754       0.26957514      -0.16219631
H        0.74913845      -0.92170714       1.76239943      -0.00515700      -0.03600486      -0.03329327       0.09006119      -0.21916475       0.14127056
N        0.45048817       2.31497190       1.00007542       0.00381525      -0.02230284      -0.00680800       0.02903558       0.08905441       0.01794990
H        0.99826841       2.06241795       1.81749076       0.01465040      -0.00245874      -0.00170118       0.03234667       0.05114123       0.01144985
H       -0.44065105       1.84498169       1.12951754       0.00609622      -0.01037917      -0.00036794      -0.07362776       0.30236751       0.11939706
C        0.51860814       2.01859239      -1.38575566       0.01654269      -0.03695090       0.05037031      -0.05166771       0.00926848       0.03075359
N        0.04460258       2.33113374      -2.41283763      -0.05338488       0.03215659      -0.03966180      -0.01792529       0.04530768       0.00528008
14
Properties=species:S:1:pos:R:3:mp2_forces:R:3:forces:R:3 R1=H R2=NH2 R3=NH2 R4=CN lg=F nu=Cl rxn-id=834 mp2_energy=-22884.27871429549 energy=-22883.686447293578 free_energy=-22884.278722052368 pbc="F F F"
C        0.89975125       0.08318418       0.06795485      -0.01486198       0.02685499      -0.00534287      -0.70302185      -0.05129396       0.10370690
C        1.11496156       1.60157932      -0.10744268       0.00267350       0.02164216      -0.03151742      -0.19621424      -0.08772523       0.04192639
H        2.16672179       1.89537125      -0.12392573       0.01272112      -0.00201863      -0.02500811      -0.07028599      -0.52619082       0.02089591
F       -0.52435057      -0.01093213       0.34911528      -0.00470610       0.02605092      -0.00258201       0.10523679      -0.05739639      -0.25897965
Cl       3.47819807      -0.19735537      -1.01653519      -0.01316481      -0.00168051       0.08792585       0.78398834      -0.17251168      -0.31479998
H        0.98746218      -0.51616911      -0.83096724      -0.03314406      -0.00483289       0.01205327       0.40551345       0.11142836       0.05248129
N        1.50247509      -0.40137105       1.28752666       0.02019916      -0.01227438       0.00405075      -0.26774041       0.02804589       0.03204467
H        2.25186138      -1.06231086       1.10873355       0.04772048       0.02219827      -0.00811756      -0.05166490       0.36309479      -0.33544565
H        0.72332673      -0.87056326       1.72479066      -0.00515700      -0.03600486      -0.03329327       0.14803437      -0.32937628       0.42198996
N        0.44286540       2.29224986       0.99419958       0.00381525      -0.02230284      -0.00680800       0.01241218       0.15502747       0.02928154
H        0.99216809       2.05187054       1.81485701       0.01465040      -0.00245874      -0.00170118       0.03273970       0.07029286       0.00408521
H       -0.41998701       1.76784240       1.09986912       0.00609622      -0.01037917      -0.00036794      -0.12061453       0.40379620       0.19628117
C        0.53063772       2.01390682      -1.39074479       0.01654269      -0.03695090       0.05037031      -0.04619561       0.05425636       0.01718211
N        0.04696703       2.32189935      -2.41458031      -0.05338488       0.03215659      -0.03966180      -0.03218728       0.03855243      -0.01064987
14
Properties=species:S:1:pos:R:3:mp2_forces:R:3:forces:R:3 R1=H R2=NH2 R3=NH2 R4=CN lg=F nu=Cl rxn-id=834 mp2_energy=-22884.27871429549 energy=-22883.2962339861 free_energy=-22884.278722052368 pbc="F F F"
C        0.97653764       0.08718001       0.05234725      -0.01486198       0.02685499      -0.00534287      -1.82239739      -0.06446363       0.40886984
C        1.13658381       1.61209204      -0.11140119       0.00267350       0.02164216      -0.03151742      -0.22486857      -0.09028590       0.03536779
H        2.17378443       1.95252896      -0.12696038       0.01272112      -0.00201863      -0.02500811      -0.05639887      -0.54417552       0.01791634
F       -0.53649154      -0.00412384       0.37789927      -0.00470610       0.02605092      -0.00258201       0.86945573       0.02970468      -0.41825947
Cl       3.39513127      -0.17679257      -0.98063848      -0.01316481      -0.00168051       0.08792585       1.05594263      -0.19730611      -0.47408166
H        0.94243236      -0.52710121      -0.83499804      -0.03314406      -0.00483289       0.01205327       0.57603017       0.10202810      -0.02013394
N        1.53264651      -0.40590350       1.28503568       0.02019916      -0.01227438       0.00405075      -0.35336985       0.03159198       0.01839742
H        2.25528139      -1.10409321       1.14389644       0.04772048       0.02219827      -0.00811756      -0.07751698       0.36438311      -0.40604205
H        0.70728852      -0.83203661       1.67835811      -0.00515700      -0.03600486      -0.03329327       0.17441880      -0.40250555       0.62465275
N        0.44129777       2.27554685       0.99096411       0.00381525      -0.02230284      -0.00680800      -0.01070983       0.19539984       0.03810412
H        0.98952815       2.04509115       1.81509640       0.01465040      -0.00245874      -0.00170118       0.02152710       0.06312729      -0.00383355
H       -0.40630948       1.72302878       1.07939136       0.00609622      -0.01037917      -0.00036794      -0.09349548       0.39395481       0.20794501
C        0.53532908       2.00703241      -1.39189215       0.01654269      -0.03695090       0.05037031      -0.01458410       0.09034476      -0.00536330
N        0.05001878       2.31675267      -2.41424758      -0.05338488       0.03215659      -0.03966180      -0.04403334       0.02820214      -0.02353930
14
Properties=species:S:1:pos:R:3:mp2_forces:R:3:forces:R:3 R1=H R2=NH2 R3=NH2 R4=CN lg=F nu=Cl rxn-id=834 mp2_energy=-22884.27871429549 energy=-22882.88766656457 free_energy=-22884.278722052368 pbc="F F F"
C        1.06515059       0.08974082       0.03111547      -0.01486198       0.02685499      -0.00534287      -2.18379331      -0.01511323       0.59095121
C        1.14759685       1.61680059      -0.11289508       0.00267350       0.02164216      -0.03151742      -0.16046218      -0.04160411       0.01655187
H        2.17638595       1.97883918      -0.12811794       0.01272112      -0.00201863      -0.02500811      -0.02576814      -0.40220565       0.00282473
F       -0.57903111      -0.00559975       0.39806930      -0.00470610       0.02605092      -0.00258201       1.10216016       0.03862934      -0.41363165
Cl       3.34406985      -0.16692220      -0.95714570      -0.01316481      -0.00168051       0.08792585       0.99531180      -0.16650842      -0.45821996
H        0.91490475      -0.53148650      -0.83335922      -0.03314406      -0.00483289       0.01205327       0.53901086       0.01757874      -0.12072953
N        1.55020687      -0.40789151       1.28464736       0.02019916      -0.01227438       0.00405075      -0.27881803       0.02065949       0.02770283
H        2.25827137      -1.12206470       1.16303668       0.04772048       0.02219827      -0.00811756      -0.05912878       0.26135463      -0.33783483
H        0.69865058      -0.81197676       1.64787251      -0.00515700      -0.03600486      -0.03329327       0.14660208      -0.31810431       0.53389607
N        0.44185502       2.26618737       0.98916719       0.00381525      -0.02230284      -0.00680800      -0.02248618       0.17020008       0.03874238
H        0.98878476       2.04253854       1.81540172       0.01465040      -0.00245874      -0.00170118       0.01297767       0.04376643      -0.00157481
H       -0.40163897       1.70362889       1.06961077       0.00609622      -0.01037917      -0.00036794      -0.03623685       0.29658164       0.15751972
C        0.53596474       2.00228650      -1.39129066       0.01654269      -0.03695090       0.05037031       0.00949896       0.07586507      -0.01372795
N        0.05188746       2.31512147      -2.41326162      -0.05338488       0.03215659      -0.03966180      -0.03886805       0.01890030      -0.02247008
14
Properties=species:S:1:pos:R:3:mp2_forces:R:3:forces:R:3 R1=H R2=NH2 R3=NH2 R4=CN lg=F nu=Cl rxn-id=834 mp2_energy=-22884.27871429549 energy=-22882.57726626285 free_energy=-22884.278722052368 pbc="F F F"
C        1.15326061       0.09019325       0.00665130      -0.01486198       0.02685499      -0.00534287      -1.40492288       0.02323545       0.41332358
C        1.15404269       1.61858028      -0.11347634       0.00267350       0.02164216      -0.03151742      -0.07875758      -0.00016402       0.00525911
H        2.17740073       1.99503663      -0.12846419       0.01272112      -0.00201863      -0.02500811      -0.01054327      -0.21180182      -0.00440430
F       -0.62373705      -0.00721216       0.41459855      -0.00470610       0.02605092      -0.00258201       0.69468417       0.01882337      -0.24336372
Cl       3.30438203      -0.16000382      -0.93842040      -0.01316481      -0.00168051       0.08792585       0.61408900      -0.09273919      -0.27821115
H        0.89349360      -0.53190660      -0.82818515      -0.03314406      -0.00483289       0.01205327       0.31307522      -0.03395808      -0.13161867
N        1.56158720      -0.40901825       1.28388942       0.02019916      -0.01227438       0.00405075      -0.14488782       0.00055056       0.04112409
H        2.26002715      -1.13289230       1.17619760       0.04772048       0.02219827      -0.00811756      -0.03326591       0.13061710      -0.19423538
H        0.69265335      -0.79872701       1.62618830      -0.00515700      -0.03600486      -0.03329327       0.07690783      -0.17098587       0.30136260
N        0.44266102       2.25933117       0.98768037       0.00381525      -0.02230284      -0.00680800      -0.01564639       0.10417583       0.02777307
H        0.98851940       2.04120451       1.81557511       0.01465040      -0.00245874      -0.00170118       0.00987707       0.02841128       0.00158614
H       -0.39997814       1.69154288       1.06351652       0.00609622      -0.01037917      -0.00036794      -0.00458197       0.15679767       0.08201882
C        0.53554243       1.99890770      -1.39035441       0.01654269      -0.03695090       0.05037031       0.00874643       0.03981085      -0.00711466
N        0.05320368       2.31416566      -2.41254589      -0.05338488       0.03215659      -0.03966180      -0.02477389       0.00722687      -0.01349952
14
Properties=species:S:1:pos:R:3:mp2_forces:R:3:forces:R:3 R1=H R2=NH2 R3=NH2 R4=CN lg=F nu=Cl rxn-id=834 mp2_energy=-22884.27871429549 energy=-22882.458039205827 free_energy=-22884.278722052368 pbc="F F F"
C        1.24428325       0.08835091      -0.02116884      -0.01486198       0.02685499      -0.00534287      -0.05021200      -0.00567897      -0.00181612
C        1.15918488       1.61881112      -0.11364284       0.00267350       0.02164216      -0.03151742      -0.00183181       0.00475828       0.00356411
H        2.17800589       2.00872097      -0.12855380       0.01272112      -0.00201863      -0.02500811      -0.00205986      -0.00835110      -0.00581336
F       -0.66918892      -0.00851958       0.43011234      -0.00470610       0.02605092      -0.00258201       0.01753917      -0.00054922      -0.01259911
Cl       3.26534035      -0.15366748      -0.92003657      -0.01316481      -0.00168051       0.08792585       0.03310458       0.00164943      -0.00454784
H        0.87382100      -0.52919135      -0.81910461      -0.03314406      -0.00483289       0.01205327       0.02175920       0.00624729       0.00268958
N        1.57111856      -0.40945971       1.28184541       0.02019916      -0.01227438       0.00405075      -0.00341356      -0.00557174       0.01183017