15
Properties=species:S:1:pos:R:3:mp2_forces:R:3:forces:R:3 R1=NH2 R2=H R3=CH3 R4=CN lg=F nu=Cl rxn-id=2463 mp2_energy=-22448.06135170081 energy=-22448.061348274787 free_energy=-22448.061348274787 pbc="F F F"
C        0.80407618      -0.02454542      -0.06649149       0.00155317      -0.04257675       0.04902634       0.00162399      -0.04261764       0.04903982
C        1.08969303       1.47009559      -0.04768833       0.02867988       0.01794335      -0.00123304       0.02864742       0.01784091      -0.00125026
H        2.18323119       1.49399669      -0.09779414       0.03996925       0.08187739       0.00235196       0.03998199       0.08188576       0.00234380
F       -0.58418077      -0.22479433       0.11636766      -0.00841798       0.02529520       0.01418979      -0.00838979       0.02532083       0.01418133
Cl       3.79553171      -0.40242134       1.29056529      -0.01245903      -0.00255735       0.04365061      -0.01245255      -0.00255678       0.04365209
H        1.33321610      -0.44719128       0.78463577      -0.03399561      -0.03795441       0.02790681      -0.03403414      -0.03793380       0.02786028
N        1.24654939      -0.64706432      -1.27266289      -0.01017701       0.02772425       0.02493369      -0.01021126       0.02775227       0.02500367
H        0.45796224      -0.82756155      -1.87940917       0.04259660       0.04550663      -0.01391700       0.04259636       0.04550243      -0.01391923
H        1.73739934      -1.50145649      -1.05082953      -0.02680667      -0.02388712      -0.06095523      -0.02680884      -0.02388682      -0.06096515
C        0.62750677       2.12511122       1.25624676       0.01240730      -0.02627344      -0.01206222       0.01239799      -0.02627239      -0.01206105
H       -0.44931468       2.01116036       1.39560508       0.01325849      -0.01877102      -0.05353019       0.01323960      -0.01877420      -0.05353026
H        1.15055898       1.63074207       2.07774986       0.00103922       0.01496614       0.00473067       0.00104902       0.01495617       0.00474846
H        0.87246178       3.19011010       1.28119544       0.02936310      -0.04323670      -0.04060642       0.02936952      -0.04320047      -0.04060326
C        0.55837483       2.14334210      -1.23269838      -0.00152190       0.00936124       0.01502038      -0.00159450       0.00940068       0.01495321
N        0.14867889       2.71821188      -2.17122496      -0.07548880      -0.02741740       0.00049386      -0.07541479      -0.02741696       0.00054655
15
Properties=species:S:1:pos:R:3:mp2_forces:R:3:forces:R:3 R1=NH2 R2=H R3=CH3 R4=CN lg=F nu=Cl rxn-id=2463 mp2_energy=-22448.06135170081 energy=-22448.06021608938 free_energy=-22448.061348274787 pbc="F F F"
C        0.79723797      -0.03410802      -0.07271175       0.00155317      -0.04257675       0.04902634       0.00231290      -0.00553597      -0.00303335
C        1.12316442       1.45375458      -0.04590513       0.02867988       0.01794335      -0.00123304      -0.00041424      -0.00498074      -0.00380158
H        2.21609394       1.48322820      -0.09947982       0.03996925       0.08187739       0.00235196      -0.00077606      -0.00392608      -0.00815485
F       -0.60820183      -0.17053859       0.05184210      -0.00841798       0.02529520       0.01418979       0.00235421      -0.00953499       0.00717099
Cl       3.78035502      -0.28251294       1.36561806      -0.01245903      -0.00255735       0.04365061      -0.00978330       0.04331007       0.04642076
H        1.26066236      -0.48435280       0.80207417      -0.03399561      -0.03795441       0.02790681       0.00919761      -0.00433467      -0.00572844
N        1.25922893      -0.65870541      -1.26669463      -0.01017701       0.02772425       0.02493369      -0.00070739      -0.00460248      -0.00352026
H        0.50322247      -0.75045198      -1.93089407       0.04259660       0.04550663      -0.01391700       0.00755010       0.02943032      -0.01734300
H        1.67345987      -1.55651455      -1.06285102      -0.02680667      -0.02388712      -0.06095523      -0.03217835      -0.02052018      -0.01075490
C        0.66366893       2.10909836       1.25586624       0.01240730      -0.02627344      -0.01206222       0.00761302      -0.00449691      -0.00126130
H       -0.40943181       1.97081096       1.39839686       0.01325849      -0.01877102      -0.05353019       0.00655911       0.00455519       0.00170739
H        1.20792707       1.64370742       2.08017587       0.00103922       0.01496614       0.00473067       0.00785207      -0.01018425      -0.00444911
H        0.88275705       3.17894408       1.25410909       0.02936310      -0.04323670      -0.04060642       0.01695901      -0.00609237      -0.00127856
C        0.55219229       2.12522087      -1.21510165      -0.00152190       0.00936124       0.01502038      -0.00632836      -0.00276799       0.00029209
N        0.06940833       2.68015508      -2.13087735      -0.07548880      -0.02741740       0.00049386      -0.01021034      -0.00031894       0.00373413
15
Properties=species:S:1:pos:R:3:mp2_forces:R:3:forces:R:3 R1=NH2 R2=H R3=CH3 R4=CN lg=F nu=Cl rxn-id=2463 mp2_energy=-22448.06135170081 energy=-22448.053129517742 free_energy=-22448.061348274787 pbc="F F F"
C        0.78519102      -0.02897835      -0.07158497       0.00155317      -0.04257675       0.04902634       0.00344398      -0.00735159      -0.00285748
C        1.12237515       1.45639050      -0.04227863       0.02867988       0.01794335      -0.00123304      -0.00185508      -0.00622228      -0.00426557
H        2.21549373       1.47872441      -0.09433601       0.03996925       0.08187739       0.00235196      -0.00215174      -0.00454746      -0.00831523
F       -0.62483139      -0.15126384       0.01650421      -0.00841798       0.02529520       0.01418979       0.00425269      -0.01565397       0.01429870
Cl       3.78627455      -0.29560030       1.30727770      -0.01245903      -0.00255735       0.04365061      -0.00676398       0.04155005       0.05478652
H        1.21946069      -0.48124971       0.81687019      -0.03399561      -0.03795441       0.02790681       0.01672295      -0.00584136      -0.00804811
N        1.27082009      -0.66311280      -1.25044514      -0.01017701       0.02772425       0.02493369      -0.00335328      -0.00367556      -0.00681989
H        0.53064855      -0.75499039      -1.93180850       0.04259660       0.04550663      -0.01391700       0.00101499       0.02439166      -0.01534334
H        1.67939016      -1.55993702      -1.03181657      -0.02680667      -0.02388712      -0.06095523      -0.02773782      -0.01726279      -0.01690947
C        0.66427843       2.10929869       1.26141174       0.01240730      -0.02627344      -0.01206222       0.00631112      -0.00338024      -0.00289917
H       -0.40084755       1.93523231       1.42407101       0.01325849      -0.01877102      -0.05353019       0.00294333       0.01439454      -0.00358872
H        1.23763485       1.66762741       2.07914245       0.00103922       0.01496614       0.00473067       0.00061450      -0.01319805      -0.00399483
H        0.84610124       3.18597036       1.24941040       0.02936310      -0.04323670      -0.04060642       0.02434873      -0.00600049      -0.00294105
C        0.55771179       2.12902073      -1.21366916      -0.00152190       0.00936124       0.01502038      -0.00735096      -0.00253656       0.00034664
N        0.08204367       2.68060328      -2.13518177      -0.07548880      -0.02741740       0.00049386      -0.01043944       0.00533411       0.00655098
15
Properties=species:S:1:pos:R:3:mp2_forces:R:3:forces:R:3 R1=NH2 R2=H R3=CH3 R4=CN lg=F nu=Cl rxn-id=2463 mp2_energy=-22448.06135170081 energy=-22448.04174132404 free_energy=-22448.061348274787 pbc="F F F"
C        0.77476282      -0.02299196      -0.06888291       0.00155317      -0.04257675       0.04902634       0.00333830      -0.00956983      -0.00292130
C        1.12242182       1.46005096      -0.03761884       0.02867988       0.01794335      -0.00123304      -0.00458974      -0.00784680      -0.00467408
H        2.21579696       1.47579551      -0.08625789       0.03996925       0.08187739       0.00235196      -0.00479467      -0.00578161      -0.00866440
F       -0.63873918      -0.13145468      -0.01615247      -0.00841798       0.02529520       0.01418979       0.00484856      -0.02262422       0.02098353
Cl       3.79396531      -0.31482315       1.23161558      -0.01245903      -0.00255735       0.04365061       0.00201969       0.03765545       0.06700169
H        1.18014608      -0.47596475       0.83267369      -0.03399561      -0.03795441       0.02790681       0.02317519      -0.00834458      -0.01061023
N        1.28264405      -0.66795832      -1.23157032      -0.01017701       0.02772425       0.02493369      -0.00671348      -0.00194715      -0.01101256
H        0.55819766      -0.76131815      -1.92894133       0.04259660       0.04550663      -0.01391700      -0.00680336       0.01850466      -0.01389390
H        1.68645730      -1.56287853      -0.99728966      -0.02680667      -0.02388712      -0.06095523      -0.02146423      -0.01243133      -0.02444906
C        0.66151644       2.11012191       1.26679821       0.01240730      -0.02627344      -0.01206222       0.00479741      -0.00174247      -0.00444284
H       -0.39540662       1.90284653       1.44416818       0.01325849      -0.01877102      -0.05353019      -0.00090398       0.02499335      -0.00690145
H        1.25757012       1.69048261       2.08002223       0.00103922       0.01496614       0.00473067      -0.00555284      -0.01483951      -0.00372143
H        0.80840386       3.19192917       1.24769910       0.02936310      -0.04323670      -0.04060642       0.03164631      -0.00528217      -0.00589575
C        0.56579664       2.13311396      -1.21236552      -0.00152190       0.00936124       0.01502038      -0.00907247      -0.00243086       0.00025138
N        0.09821172       2.68078418      -2.14033107      -0.07548880      -0.02741740       0.00049386      -0.00993070       0.01168708       0.00895040
15
Properties=species:S:1:pos:R:3:mp2_forces:R:3:forces:R:3 R1=NH2 R2=H R3=CH3 R4=CN lg=F nu=Cl rxn-id=2463 mp2_energy=-22448.06135170081 energy=-22448.03227372707 free_energy=-22448.061348274787 pbc="F F F"
C        0.77140847      -0.01811455      -0.06529208       0.00155317      -0.04257675       0.04902634       0.00025508      -0.01146305      -0.00341363
C        1.12490055       1.46368079      -0.03304633       0.02867988       0.01794335      -0.00123304      -0.00954337      -0.00926711      -0.00495891
H        2.21855250       1.47718991      -0.07703222       0.03996925       0.08187739       0.00235196      -0.00948194      -0.00943151      -0.00930793
F       -0.64345505      -0.11727899      -0.03281895      -0.00841798       0.02529520       0.01418979       0.00258422      -0.02989245       0.02652902
Cl       3.80271994      -0.33472758       1.16721907      -0.01245903      -0.00255735       0.04365061       0.01062095       0.03200261       0.07560731
H        1.15974325      -0.47158960       0.84351220      -0.03399561      -0.03795441       0.02790681       0.02683049      -0.01000191      -0.01353425
N        1.28946754      -0.66967191      -1.21971178      -0.01017701       0.02772425       0.02493369      -0.00988265      -0.00023703      -0.01380926
H        0.56902516      -0.77228987      -1.91960944       0.04259660       0.04550663      -0.01391700      -0.01032647       0.01166624      -0.01575450
H        1.69860987      -1.55944490      -0.97529867      -0.02680667      -0.02388712      -0.06095523      -0.01342074      -0.00621065      -0.02832735
C        0.65568191       2.11173827       1.26941491       0.01240730      -0.02627344      -0.01206222       0.00329676       0.00041411      -0.00430801
H       -0.39997996       1.89482951       1.44277083       0.01325849      -0.01877102      -0.05353019      -0.00314537       0.03171104      -0.00358687
H        1.25135012       1.69653370       2.08529197       0.00103922       0.01496614       0.00473067      -0.00604349      -0.01298051      -0.00407048
H        0.79317884       3.19471960       1.25206999       0.02936310      -0.04323670      -0.04060642       0.03504109      -0.00353210      -0.00950322
C        0.57318993       2.13472665      -1.21108685      -0.00152190       0.00936124       0.01502038      -0.01080491      -0.00142612      -0.00026791
N        0.10735192       2.67743424      -2.14281567      -0.07548880      -0.02741740       0.00049386      -0.00597965       0.01864842       0.00870599
15
Properties=species:S:1:pos:R:3:mp2_forces:R:3:forces:R:3 R1=NH2 R2=H R3=CH3 R4=CN lg=F nu=Cl rxn-id=2463 mp2_energy=-22448.06135170081 energy=-22448.02864631217 free_energy=-22448.061348274787 pbc="F F F"
C        0.77559742      -0.01362481      -0.06465155       0.00155317      -0.04257675       0.04902634      -0.00767969      -0.01269724      -0.00519690
C        1.13099836       1.46795985      -0.03243453       0.02867988       0.01794335      -0.00123304      -0.01798799      -0.01103283      -0.00533637
H        2.22456603       1.48657737      -0.07609980       0.03996925       0.08187739       0.00235196      -0.01758410      -0.02399417      -0.00842199
F       -0.63972646      -0.10554609      -0.03843555      -0.00841798       0.02529520       0.01418979      -0.00418109      -0.04065382       0.03292631
Cl       3.79521362      -0.34821881       1.15344407      -0.01245903      -0.00255735       0.04365061       0.02218428       0.02724257       0.07965630
H        1.15741181      -0.46831770       0.84628969      -0.03399561      -0.03795441       0.02790681       0.02996532      -0.00923598      -0.01804640
N        1.29110664      -0.66776006      -1.21954760      -0.01017701       0.02772425       0.02493369      -0.01292515       0.00103727      -0.01457553
H        0.56208993      -0.78225163      -1.90871821       0.04259660       0.04550663      -0.01391700      -0.00423449       0.00492393      -0.02487063
H        1.70888901      -1.55284203      -0.97202071      -0.02680667      -0.02388712      -0.06095523      -0.00604431       0.00118982      -0.02519970
C        0.65492172       2.11123291       1.26973086       0.01240730      -0.02627344      -0.01206222       0.00212580       0.00315876      -0.00401106
H       -0.40162075       1.89202631       1.43398284       0.01325849      -0.01877102      -0.05353019      -0.00489578       0.03884183       0.00509508
H        1.24471908       1.69171724       2.08773499       0.00103922       0.01496614       0.00473067      -0.00337621      -0.00882387      -0.00583339
H        0.79175200       3.19427461       1.25914253       0.02936310      -0.04323670      -0.04060642       0.03686766      -0.00029155      -0.01275253
C        0.57464181       2.13423173      -1.21099688      -0.00152190       0.00936124       0.01502038      -0.01159210       0.00195479      -0.00130711
N        0.10118477       2.66827638      -2.14385318      -0.07548880      -0.02741740       0.00049386      -0.00064216       0.02838049       0.00787393
15
Properties=species:S:1:pos:R:3:mp2_forces:R:3:forces:R:3 R1=NH2 R2=H R3=CH3 R4=CN lg=F nu=Cl rxn-id=2463 mp2_energy=-22448.06135170081 energy=-22448.010812300137 free_energy=-22448.061348274787 pbc="F F F"
C        0.78320714      -0.00342141      -0.06234826       0.00155317      -0.04257675       0.04902634      -0.03146744      -0.01263232      -0.01334853
C        1.14447924       1.47762960      -0.03072584       0.02867988       0.01794335      -0.00123304      -0.03811121      -0.01416757      -0.00836191
H        2.23733704       1.51073503      -0.07719399       0.03996925       0.08187739       0.00235196      -0.03431029      -0.07397986       0.00049673
F       -0.63454083      -0.07457944      -0.06320373      -0.00841798       0.02529520       0.01418979      -0.02408121      -0.06602546       0.04983231
Cl       3.76180033      -0.37624243       1.10918245      -0.01245903      -0.00255735       0.04365061       0.07239570       0.01129880       0.10155240
H        1.13768571      -0.46066055       0.85816843      -0.03399561      -0.03795441       0.02790681       0.04425081      -0.00095308      -0.03459820
N        1.30053699      -0.66770122      -1.21113707      -0.01017701       0.02772425       0.02493369      -0.02333388       0.00659112      -0.02001464
H        0.56169675      -0.79228754      -1.88796249       0.04259660       0.04550663      -0.01391700       0.00941031      -0.01557719      -0.05294264
H        1.72079052      -1.54971984      -0.95544515      -0.02680667      -0.02388712      -0.06095523       0.00797641       0.02384263      -0.01452670
C        0.65638698       2.10831815       1.27295581       0.01240730      -0.02627344      -0.01206222      -0.00204234       0.01085777      -0.00476758
H       -0.39282789       1.85546444       1.43500583       0.01325849      -0.01877102      -0.05353019      -0.01183533       0.06300240       0.02256046
H        1.25729568       1.70093314       2.08917800       0.00103922       0.01496614       0.00473067      -0.00276443      -0.00262713      -0.01110069
H        0.76072846       3.19474527       1.26691949       0.02936310      -0.04323670      -0.04060642       0.04421067       0.00760543      -0.01548332
C        0.57893961       2.13394405      -1.21048493      -0.00152190       0.00936124       0.01502038      -0.01106658       0.01461696      -0.00593620
N        0.09822922       2.65057803      -2.14934158      -0.07548880      -0.02741740       0.00049386       0.00076882       0.04814749       0.00663851
15
Properties=species:S:1:pos:R:3:mp2_forces:R:3:forces:R:3 R1=NH2 R2=H R3=CH3 R4=CN lg=F nu=Cl rxn-id=2463 mp2_energy=-22448.06135170081 energy=-22447.98268624373 free_energy=-22448.061348274787 pbc="F F F"
C        0.79852973       0.00234990      -0.05869078       0.00155317      -0.04257675       0.04902634      -0.07172806      -0.00697603      -0.02708294
C        1.16366605       1.48380831      -0.02826156       0.02867988       0.01794335      -0.00123304      -0.06672961      -0.01499221      -0.01440863
H        2.25496849       1.54085692      -0.07913600       0.03996925       0.08187739       0.00235196      -0.05282058      -0.14837346       0.01340149
F       -0.62206006      -0.04615820      -0.08446557      -0.00841798       0.02529520       0.01418979      -0.05690842      -0.08856755       0.07702429
Cl       3.71974180      -0.37909846       1.07905659      -0.01245903      -0.00255735       0.04365061       0.15337013      -0.01120790       0.13520168
H        1.12304522      -0.46053521       0.86964547      -0.03399561      -0.03795441       0.02790681       0.07278481       0.01837207      -0.05565913
N        1.30997149      -0.66951413      -1.20617541      -0.01017701       0.02772425       0.02493369      -0.04321167       0.01233007      -0.02368261
H        0.55385990      -0.78810371      -1.86491254       0.04259660       0.04550663      -0.01391700       0.03555126      -0.04535931      -0.11189218
H        1.71828294      -1.55824236      -0.95219928      -0.02680667      -0.02388712      -0.06095523       0.01937371       0.05127129       0.00900960
C        0.66005937       2.10341410       1.27420080       0.01240730      -0.02627344      -0.01206222      -0.00870111       0.02043022      -0.00362315
H       -0.38488456       1.82720090       1.42318218       0.01325849      -0.01877102      -0.05353019      -0.02203977       0.08699211       0.05204929
H        1.26116563       1.70266878       2.09365322       0.00103922       0.01496614       0.00473067       0.00145381       0.00263539      -0.01993297
H        0.74254713       3.19142758       1.27280539       0.02936310      -0.04323670      -0.04060642       0.04801817       0.01858764      -0.01127610
C        0.58302811       2.12814748      -1.20731532      -0.00152190       0.00936124       0.01502038      -0.00915610       0.03774616      -0.01366092
N        0.08982374       2.62951339      -2.14782022      -0.07548880      -0.02741740       0.00049386       0.00074343       0.06711150      -0.00546771
15
Properties=species:S:1:pos:R:3:mp2_forces:R:3:forces:R:3 R1=NH2 R2=H R3=CH3 R4=CN lg=F nu=Cl rxn-id=2463 mp2_energy=-22448.06135170081 energy=-22447.843273420494 free_energy=-22448.061348274787 pbc="F F F"
C        0.83926629       0.00920784      -0.04619116       0.00155317      -0.04257675       0.04902634      -0.24110380       0.01820914      -0.07050646
C        1.20562672       1.49427331      -0.02136670       0.02867988       0.01794335      -0.00123304      -0.14040025      -0.01097350      -0.02830601
H        2.28908055       1.62462386      -0.08714646       0.03996925       0.08187739       0.00235196      -0.07844001      -0.36638087       0.05399837
F       -0.58963385       0.01159116      -0.13708958      -0.00841798       0.02529520       0.01418979      -0.11683078      -0.12673205       0.15128573
Cl       3.62768824      -0.37089823       1.00747422      -0.01245903      -0.00255735       0.04365061       0.39787767      -0.07846615       0.24161735
H        1.07513543      -0.46861085       0.90050248      -0.03399561      -0.03795441       0.02790681       0.19143445       0.08825192      -0.10822766
N        1.33535244      -0.67611409      -1.19361135      -0.01017701       0.02772425       0.02493369      -0.12839769       0.02586278      -0.02323769
H        0.53215238      -0.76644203      -1.79887755       0.04259660       0.04550663      -0.01391700       0.10052289      -0.15455878      -0.33450809
H        1.70727657      -1.58641541      -0.95409060      -0.02680667      -0.02388712      -0.06095523       0.04739793       0.12729145       0.08710944
C        0.66819123       2.09019059       1.27650847       0.01240730      -0.02627344      -0.01206222      -0.02586688       0.04998361       0.00340544
H       -0.36689967       1.76850684       1.39491423       0.01325849      -0.01877102      -0.05353019      -0.04585258       0.14069999       0.11969223
H        1.26740706       1.70243857       2.10383402       0.00103922       0.01496614       0.00473067       0.00837788       0.01435821      -0.03781964
H        0.70987457       3.17969582       1.28135101       0.02936310      -0.04323670      -0.04060642       0.04144828       0.05028431       0.01191686
C        0.58955859       2.10814022      -1.19950225      -0.00152190       0.00936124       0.01502038       0.01033379       0.12673397      -0.02297378
N        0.08166843       2.58754767      -2.14314181      -0.07548880      -0.02741740       0.00049386      -0.02050090       0.09543596      -0.04344608
15
Properties=species:S:1:pos:R:3:mp2_forces:R:3:forces:R:3 R1=NH2 R2=H R3=CH3 R4=CN lg=F nu=Cl rxn-id=2463 mp2_energy=-22448.06135170081 energy=-22447.608390327234 free_energy=-22448.061348274787 pbc="F F F"
C        0.89003332       0.00465415      -0.03200995       0.00155317      -0.04257675       0.04902634      -0.77538591       0.05813822      -0.12786613
C        1.23438241       1.49599852      -0.01556354       0.02867988       0.01794335      -0.00123304      -0.20400688      -0.00763954      -0.02791239
H        2.30467501       1.70163674      -0.09924264       0.03996925       0.08187739       0.00235196      -0.07184399      -0.55373927       0.09046936
F       -0.56512055       0.03667674      -0.16910808      -0.00841798       0.02529520       0.01418979       0.10620125      -0.12150812       0.22606833
Cl       3.54206819      -0.35325222       0.95749676      -0.01245903      -0.00255735       0.04365061       0.71110374      -0.14927836       0.38306263
H        1.03461769      -0.48831515       0.92333449      -0.03399561      -0.03795441       0.02790681       0.35842831       0.15803783      -0.11781332
N        1.36273585      -0.68154587      -1.18887978      -0.01017701       0.02772425       0.02493369      -0.25863079       0.04697762       0.01181000
H        0.51111713      -0.73540142      -1.72845848       0.04259660       0.04550663      -0.01391700       0.14750655      -0.30062802      -0.65136609
H        1.69904681      -1.61332211      -0.97305266      -0.02680667      -0.02388712      -0.06095523       0.06787539       0.19375719       0.16165411
C        0.67394504       2.07999599       1.27573214       0.01240730      -0.02627344      -0.01206222      -0.03587339       0.07978134       0.01460873
H       -0.35728071       1.74087025       1.37031305       0.01325849      -0.01877102      -0.05353019      -0.06042173       0.16671562       0.16097900
H        1.26548767       1.69943820       2.11193040       0.00103922       0.01496614       0.00473067       0.01460592       0.01205659      -0.05055485
H        0.70341683       3.16930710       1.27800281       0.02936310      -0.04323670      -0.04060642       0.01479894       0.07639179       0.03904877
C        0.58719882       2.08061927      -1.19282549      -0.00152190       0.00936124       0.01502038       0.04487324       0.27205530      -0.04374160
N        0.08542147       2.57037509      -2.13410207      -0.07548880      -0.02741740       0.00049386      -0.05923065       0.06888180      -0.06844654
15
Properties=species:S:1:pos:R:3:mp2_forces:R:3:forces:R:3 R1=NH2 R2=H R3=CH3 R4=CN lg=F nu=Cl rxn-id=2463 mp2_energy=-22448.06135170081 energy=-22447.155262380205 free_energy=-22448.061348274787 pbc="F F F"
C        0.98293239      -0.00238103      -0.01695949       0.00155317      -0.04257675       0.04902634      -2.08860173       0.13219690      -0.29813053
C        1.25891279       1.49681458      -0.01210836       0.02867988       0.01794335      -0.00123304      -0.23704164       0.00060739      -0.01712646
H        2.31324556       1.76813247      -0.11048238       0.03996925       0.08187739       0.00235196      -0.05167142      -0.59343583       0.09253169
F       -0.57811382       0.05147871      -0.19707771      -0.00841798       0.02529520       0.01418979       0.96918210      -0.09695713       0.33295180
Cl       3.45596541      -0.33558072       0.91208300      -0.01245903      -0.00255735       0.04365061       1.02734611      -0.19748600       0.53264975
H        0.99083309      -0.50727672       0.93743844      -0.03399561      -0.03795441       0.02790681       0.54206515       0.14116110      -0.03629398
N        1.39407799      -0.68719358      -1.19037597      -0.01017701       0.02772425       0.02493369      -0.36107443       0.07402867       0.06229005
H        0.49369359      -0.69995820      -1.65023614       0.04259660       0.04550663      -0.01391700       0.17379284      -0.41221388      -0.91009589
H        1.69157313      -1.63655308      -0.99205210      -0.02680667      -0.02388712      -0.06095523       0.08404064       0.20961530       0.19221606
C        0.67861162       2.07045329       1.27409514       0.01240730      -0.02627344      -0.01206222      -0.03157057       0.09668884       0.02356596
H       -0.34953999       1.72039252       1.35164591       0.01325849      -0.01877102      -0.05353019      -0.05171689       0.15990471       0.16427063
H        1.26471189       1.69840941       2.11776628       0.00103922       0.01496614       0.00473067       0.02298813       0.00002511      -0.05471618
H        0.70138316       3.16009699       1.27317032       0.02936310      -0.04323670      -0.04060642      -0.00630276       0.07708491       0.04391700
C        0.58063571       2.04891944      -1.18897186      -0.00152190       0.00936124       0.01502038       0.11632702       0.36398584      -0.00783216
N        0.09282247       2.56198120      -2.12436810      -0.07548880      -0.02741740       0.00049386      -0.10776255       0.04479408      -0.12019775
15
Properties=species:S:1:pos:R:3:mp2_forces:R:3:forces:R:3 R1=NH2 R2=H R3=CH3 R4=CN lg=F nu=Cl rxn-id=2463 mp2_energy=-22448.06135170081 energy=-22446.759797820458 free_energy=-22448.061348274787 pbc="F F F"
C        1.06629067      -0.00765781      -0.00510774       0.00155317      -0.04257675       0.04902634      -2.52588122       0.16826950      -0.42017012
C        1.26820896       1.49684377      -0.01164186       0.02867988       0.01794335      -0.00123304      -0.17956383       0.02319058      -0.00525632
H        2.31530463       1.79184241      -0.11429158       0.03996925       0.08187739       0.00235196      -0.02816748      -0.46989708       0.07129410
F       -0.61681105       0.05538050      -0.21063932      -0.00841798       0.02529520       0.01418979       1.26661367      -0.08919340       0.30837211
Cl       3.41465523      -0.32773550       0.89102550      -0.01245903      -0.00255735       0.04365061       1.01605819      -0.17755293       0.51861829
H        0.96897385      -0.51293772       0.93881962      -0.03399561      -0.03795441       0.02790681       0.54160099       0.04396842       0.07455356
N        1.40857838      -0.69020379      -1.19286340      -0.01017701       0.02772425       0.02493369      -0.30126765       0.05925103       0.05354440
H        0.48682363      -0.68372912      -1.61390533       0.04259660       0.04550663      -0.01391700       0.14615462      -0.34487506      -0.79124728
H        1.68843929      -1.64489362      -0.99968110      -0.02680667      -0.02388712      -0.06095523       0.08136587       0.16320107       0.16723757
C        0.67996435       2.06659651       1.27317269       0.01240730      -0.02627344      -0.01206222      -0.01949911       0.08442726       0.02238347
H       -0.34732256       1.71394805       1.34527794       0.01325849      -0.01877102      -0.05353019      -0.03441427       0.12767050       0.13322472