15
Properties=species:S:1:pos:R:3:mp2_forces:R:3:forces:R:3 R1=H R2=CH3 R3=H R4=CH3 lg=Br nu=F rxn-id=526 mp2_energy=-77007.38182647791 energy=-77007.38182647791 free_energy=-77007.38182647791 pbc="F F F"
C        0.20152319       0.00376221       0.18550383       0.04376992       0.00540625      -0.00260386       0.04376992       0.00540625      -0.00260386
C        0.57463398       1.47390133       0.10079016      -0.02360307      -0.04868760      -0.00726110      -0.02360307      -0.04868760      -0.00726110
H        1.64883698       1.47516168       0.29783895      -0.03728564      -0.00718283      -0.01016618      -0.03728564      -0.00718283      -0.01016618
Br      -1.80183816      -0.18246299       0.30755985       0.02600052       0.01520868      -0.01008715       0.02600052       0.01520868      -0.01008715
F        2.57618096      -0.14366728      -0.92529025      -0.00351923       0.03462296       0.02124967      -0.00351923       0.03462296       0.02124967
H        0.49788914      -0.48018292      -0.74223089      -0.00085741       0.03371520       0.04604822      -0.00085741       0.03371520       0.04604822
H        0.03535219       2.05995155       0.85760033       0.01735709      -0.05860259       0.00274031       0.01735709      -0.05860259       0.00274031
C        0.85405109      -0.73447365       1.33222884      -0.02619536       0.00323698      -0.06049356      -0.02619536       0.00323698      -0.06049356
H        1.91313658      -0.68866064       1.05805323      -0.01615677      -0.00555110       0.00233721      -0.01615677      -0.00555110       0.00233721
H        0.64476072      -0.28014844       2.30811905       0.03024192       0.02986520      -0.08517174       0.03024192       0.02986520      -0.08517174
H        0.53768982      -1.78089825       1.35165838      -0.00934146       0.00916699       0.04903360      -0.00934146       0.00916699       0.04903360
C        0.38247912       2.02712585      -1.30626154      -0.00510519      -0.00192917       0.01742485      -0.00510519      -0.00192917       0.01742485
H        1.12461180       1.52360179      -1.92866692      -0.00590104      -0.03770098       0.04189931      -0.00590104      -0.03770098       0.04189931
H       -0.62447371       1.83008591      -1.68755010      -0.00719118       0.01960470       0.01435729      -0.00719118       0.01960470       0.01435729
H        0.55317375       3.10869168      -1.33848059       0.01778691       0.00882731      -0.01930686       0.01778691       0.00882731      -0.01930686
15
Properties=species:S:1:pos:R:3:mp2_forces:R:3:forces:R:3 R1=H R2=CH3 R3=H R4=CH3 lg=Br nu=F rxn-id=526 mp2_energy=-77007.38182647791 energy=-77007.38584133779 free_energy=-77007.38182647791 pbc="F F F"
C        0.20180903      -0.00093826       0.17886429       0.04376992       0.00540625      -0.00260386      -0.02397510       0.00226954       0.00989338
C        0.56342176       1.47080985       0.10378951      -0.02360307      -0.04868760      -0.00726110      -0.01268873      -0.00242192       0.01025870
H        1.63128459       1.49682641       0.32504860      -0.03728564      -0.00718283      -0.01016618      -0.00670531      -0.03655243      -0.01091237
Br      -1.80136700      -0.17442224       0.34432147       0.02600052       0.01520868      -0.01008715      -0.01164221      -0.01738293      -0.04480248
F        2.55227345      -0.12626307      -0.94025481      -0.00351923       0.03462296       0.02124967       0.03429314       0.02331442      -0.02289811
H        0.47815940      -0.48160851      -0.75500070      -0.00085741       0.03371520       0.04604822       0.02373134       0.01305333       0.01624041
H       -0.00032632       2.04108178       0.85244200       0.01735709      -0.05860259       0.00274031       0.01376813       0.01321006       0.01980601
C        0.86275081      -0.73547311       1.32054951      -0.02619536       0.00323698      -0.06049356      -0.01084332       0.00716903       0.00368532
H        1.92379277      -0.67569324       1.06160428      -0.01615677      -0.00555110       0.00233721      -0.02078211       0.00444826      -0.04786683
H        0.63841305      -0.27517183       2.28821919       0.03024192       0.02986520      -0.08517174       0.03315456       0.01785534       0.00998555
H        0.56060375      -1.78581558       1.34715164      -0.00934146       0.00916699       0.04903360      -0.01433808       0.00851818       0.02414566
C        0.39431571       2.02124318      -1.30576697      -0.00510519      -0.00192917       0.01742485      -0.00544918      -0.00643276       0.00810681
H        1.13233251       1.49010008      -1.90976773      -0.00590104      -0.03770098       0.04189931      -0.00517131      -0.02151999       0.02091300
H       -0.61472098       1.84924831      -1.69351548      -0.00719118       0.01960470       0.01435729      -0.00456225       0.00452540       0.00029889
H        0.59526492       3.09786408      -1.34681249       0.01778691       0.00882731      -0.01930686       0.01121041      -0.01005354       0.00314606
15
Properties=species:S:1:pos:R:3:mp2_forces:R:3:forces:R:3 R1=H R2=CH3 R3=H R4=CH3 lg=Br nu=F rxn-id=526 mp2_energy=-77007.38182647791 energy=-77007.36697569427 free_energy=-77007.38182647791 pbc="F F F"
C        0.22050037      -0.00264698       0.17133929       0.04376992       0.00540625      -0.00260386      -0.08271711       0.00894598       0.03577179
C        0.57316846       1.47278594       0.09598160      -0.02360307      -0.04868760      -0.00726110      -0.03492376      -0.00420018       0.02286772
H        1.63640261       1.52540152       0.33365849      -0.03728564      -0.00718283      -0.01016618      -0.01805624      -0.09108188      -0.02425561
Br      -1.79211015      -0.16127536       0.37839141       0.02600052       0.01520868      -0.01008715      -0.00674904      -0.02253086      -0.07173893
F        2.52566037      -0.14360649      -0.92379272      -0.00351923       0.03462296       0.02124967       0.10018067       0.02159564      -0.06967686
H        0.46073997      -0.49146619      -0.76734214      -0.00085741       0.03371520       0.04604822       0.07184992       0.03653815       0.04913181
H       -0.01119420       2.03100530       0.83712556       0.01735709      -0.05860259       0.00274031       0.02602283       0.04832553       0.03605990
C        0.87100484      -0.74111907       1.31791579      -0.02619536       0.00323698      -0.06049356      -0.03246772       0.01633610       0.01034728
H        1.93976386      -0.67987024       1.09878886      -0.01615677      -0.00555110       0.00233721      -0.05233041       0.03759380      -0.11162750
H        0.61307657      -0.28890488       2.28074609       0.03024192       0.02986520      -0.08517174       0.04877726       0.00899524       0.03869399
H        0.57090509      -1.79232364       1.32887175      -0.00934146       0.00916699       0.04903360      -0.01184291       0.00940794       0.03060846
C        0.39846723       2.02612065      -1.31200324      -0.00510519      -0.00192917       0.01742485      -0.01200520      -0.01487137       0.01439717
H        1.13601597       1.50621794      -1.92584852      -0.00590104      -0.03770098       0.04189931      -0.00304702      -0.03970004       0.04406158
H       -0.61139223       1.84602260      -1.69353940      -0.00719118       0.01960470       0.01435729      -0.00653744       0.00455422      -0.01198511
H        0.58699871       3.10544674      -1.34942049       0.01778691       0.00882731      -0.01930686       0.01384617      -0.01990828       0.00734430
15
Properties=species:S:1:pos:R:3:mp2_forces:R:3:forces:R:3 R1=H R2=CH3 R3=H R4=CH3 lg=Br nu=F rxn-id=526 mp2_energy=-77007.38182647791 energy=-77007.30404428729 free_energy=-77007.38182647791 pbc="F F F"
C        0.26261919      -0.00721048       0.15311837       0.04376992       0.00540625      -0.00260386      -0.26631289       0.01283177       0.09400186
C        0.59112585       1.47486431       0.08422559      -0.02360307      -0.04868760      -0.00726110      -0.07415314      -0.01289163       0.03742359
H        1.64591261       1.57138696       0.34537571      -0.03728564      -0.00718283      -0.01016618      -0.03851031      -0.17226446      -0.03999698
Br      -1.78855793      -0.14974823       0.41438447       0.02600052       0.01520868      -0.01008715       0.09303405      -0.00974597      -0.07964386
F        2.47545102      -0.15462810      -0.88748784      -0.00351923       0.03462296       0.02124967       0.23634247       0.00274546      -0.15935190
H        0.42453757      -0.51012593      -0.79227045      -0.00085741       0.03371520       0.04604822       0.16803004       0.07277372       0.09638116
H       -0.02386329       2.00643259       0.81891184       0.01735709      -0.05860259       0.00274031       0.02917223       0.10890258       0.04409925
C        0.88738846      -0.74945093       1.31273382      -0.02619536       0.00323698      -0.06049356      -0.07561438       0.02560252       0.01764794
H        1.96627333      -0.69912703       1.15563946      -0.01615677      -0.00555110       0.00233721      -0.10128137       0.08575638      -0.19824122
H        0.58812762      -0.29348130       2.26114183       0.03024192       0.02986520      -0.08517174       0.04998816      -0.01695881       0.08297948
H        0.57667099      -1.79710019       1.31337060      -0.00934146       0.00916699       0.04903360      -0.00375534      -0.00094579       0.03990909
C        0.40424393       2.03377561      -1.31933653      -0.00510519      -0.00192917       0.01742485      -0.02032384      -0.02394802       0.01906056
H        1.13692825       1.52659456      -1.94871676      -0.00590104      -0.03770098       0.04189931       0.00165944      -0.05348061       0.06459204
H       -0.60856477       1.84395557      -1.68708867      -0.00719118       0.01960470       0.01435729      -0.00986477       0.00956900      -0.03270544
H        0.57971462       3.11565045      -1.35312909       0.01778691       0.00882731      -0.01930686       0.01158965      -0.02794616       0.01384442
15
Properties=species:S:1:pos:R:3:mp2_forces:R:3:forces:R:3 R1=H R2=CH3 R3=H R4=CH3 lg=Br nu=F rxn-id=526 mp2_energy=-77007.38182647791 energy=-77007.2167985943 free_energy=-77007.38182647791 pbc="F F F"
C        0.31687247      -0.00982688       0.13396516       0.04376992       0.00540625      -0.00260386      -0.47547378       0.00762907       0.14370456
C        0.60626279       1.47748003       0.07659400      -0.02360307      -0.04868760      -0.00726110      -0.08341911      -0.02019190       0.03602020
H        1.65381624       1.60642106       0.35342567      -0.03728564      -0.00718283      -0.01016618      -0.04164900      -0.18068500      -0.04113396
Br      -1.80748798      -0.14776342       0.43042436       0.02600052       0.01520868      -0.01008715       0.23670505       0.01147370      -0.06508238
F        2.42742973      -0.15523704      -0.85495369      -0.00351923       0.03462296       0.02124967       0.30527090      -0.01070439      -0.19609944
H        0.39043789      -0.52495294      -0.81189494      -0.00085741       0.03371520       0.04604822       0.21016680       0.07545315       0.09114696
H       -0.02970020       1.98424748       0.80997873       0.01735709      -0.05860259       0.00274031       0.02092352       0.12415541       0.03473097
C        0.90276002      -0.75465747       1.30916134      -0.02619536       0.00323698      -0.06049356      -0.08932066       0.02402107       0.01458254
H        1.98687511      -0.71661459       1.19603151      -0.01615677      -0.00555110       0.00233721      -0.10571482       0.09025341      -0.20211948
H        0.57792918      -0.28999058       2.24425522       0.03024192       0.02986520      -0.08517174       0.03532194      -0.02874355       0.08942894
H        0.57738255      -1.79689201       1.30528996      -0.00934146       0.00916699       0.04903360       0.00307809      -0.01243180       0.04120577
C        0.40831586       2.03866949      -1.32320301      -0.00510519      -0.00192917       0.01742485      -0.01824476      -0.02185775       0.01627803
H        1.13645150       1.53749658      -1.96193525      -0.00590104      -0.03770098       0.04189931       0.00507570      -0.04754070       0.05845509
H       -0.60666047       1.84205648      -1.68032780      -0.00719118       0.01960470       0.01435729      -0.00928299       0.01156550      -0.03356344
H        0.57732277       3.12135164      -1.35593892       0.01778691       0.00882731      -0.01930686       0.00656315      -0.02239621       0.01244564
15
Properties=species:S:1:pos:R:3:mp2_forces:R:3:forces:R:3 R1=H R2=CH3 R3=H R4=CH3 lg=Br nu=F rxn-id=526 mp2_energy=-77007.38182647791 energy=-77007.1365748209 free_energy=-77007.38182647791 pbc="F F F"
C        0.37917468      -0.01083076       0.11513419       0.04376992       0.00540625      -0.00260386      -0.42952246       0.00494907       0.12650207
C        0.61721507       1.48011976       0.07186749      -0.02360307      -0.04868760      -0.00726110      -0.05049485      -0.01418805       0.02025548
H        1.65931340       1.63006675       0.35875092      -0.03728564      -0.00718283      -0.01016618      -0.02335843      -0.10989166      -0.02654041
Br      -1.83848780      -0.14927134       0.43882820       0.02600052       0.01520868      -0.01008715       0.22059769       0.01538359      -0.04007249
F        2.38750186      -0.15386213      -0.82921035      -0.00351923       0.03462296       0.02124967       0.22405195      -0.00934287      -0.13756612
H        0.36297906      -0.53484625      -0.82383105      -0.00085741       0.03371520       0.04604822       0.14965990       0.04098237       0.04205039
H       -0.03237411       1.96797876       0.80545696       0.01735709      -0.05860259       0.00274031       0.01154645       0.07942612       0.01846893
C        0.91444527      -0.75780064       1.30726921      -0.02619536       0.00323698      -0.06049356      -0.05537516       0.01320522       0.00800192
H        2.00070985      -0.72846095       1.22252610      -0.01615677      -0.00555110       0.00233721      -0.06145999       0.05451764      -0.12284945
H        0.57329804      -0.28620242       2.23255204       0.03024192       0.02986520      -0.08517174       0.01775089      -0.02003523       0.05524048
H        0.57694026      -1.79525320       1.29992429      -0.00934146       0.00916699       0.04903360       0.00386301      -0.01111820       0.02598701
C        0.41066307       2.04154387      -1.32532786      -0.00510519      -0.00192917       0.01742485      -0.00906921      -0.01211586       0.00858619
H        1.13569684       1.54373401      -1.96963744      -0.00590104      -0.03770098       0.04189931       0.00470101      -0.02801903       0.03363231
H       -0.60551080       1.84057887      -1.67587021      -0.00719118       0.01960470       0.01435729      -0.00529305       0.00714169      -0.01823689
H        0.57644275       3.12429349      -1.35756015       0.01778691       0.00882731      -0.01930686       0.00240224      -0.01089482       0.00654059
15
Properties=species:S:1:pos:R:3:mp2_forces:R:3:forces:R:3 R1=H R2=CH3 R3=H R4=CH3 lg=Br nu=F rxn-id=526 mp2_energy=-77007.38182647791 energy=-77007.10445261092 free_energy=-77007.38182647791 pbc="F F F"
C        0.44588536      -0.01160346       0.09549004       0.04376992       0.00540625      -0.00260386       0.05295600      -0.00084578      -0.01599109
C        0.62508534       1.48231645       0.06871303      -0.02360307      -0.04868760      -0.00726110       0.00544126       0.00136341      -0.00214743
H        1.66299070       1.64710592       0.36279771      -0.03728564      -0.00718283      -0.01016618       0.00266086       0.01145567       0.00235113
Br      -1.87273196      -0.15166446       0.44490228       0.02600052       0.01520868      -0.01008715      -0.02603902      -0.00189270       0.00323090
F        2.35278193      -0.15244108      -0.80779022      -0.00351923       0.03462296       0.02124967      -0.02594108       0.00086851       0.01640162
H        0.33982373      -0.54122236      -0.83035851      -0.00085741       0.03371520       0.04604822      -0.01640984      -0.00387252      -0.00332365
H       -0.03408751       1.95564167       0.80262338       0.01735709      -0.05860259       0.00274031      -0.00067416      -0.00876305      -0.00161911
C        0.92302615      -0.75984744       1.30604775      -0.02619536       0.00323698      -0.06049356       0.00566404      -0.00120622      -0.00085250
H        2.01023764      -0.73695454       1.24162483      -0.01615677      -0.00555110       0.00233721       0.00618871      -0.00601212       0.01326354
H        0.57053693      -0.28306462       2.22398899       0.03024192       0.02986520      -0.08517174      -0.00181727       0.00247391      -0.00588934
H        0.57629596      -1.79351457       1.29592553      -0.00934146       0.00916699       0.04903360      -0.00076217       0.00140977      -0.00257167
C        0.41202140       2.04343739      -1.32665140      -0.00510519      -0.00192917       0.01742485       0.00046842       0.00137272      -0.00074689
H        1.13486210       1.54809392      -1.97491024      -0.00590104      -0.03770098       0.04189931      -0.00137521       0.00301137      -0.00384828
H       -0.60476651       1.83951151      -1.67296540      -0.00719118       0.01960470       0.01435729      -0.00001561      -0.00048041       0.00234766
H        0.57604620       3.12599348      -1.35856543       0.01778691       0.00882731      -0.01930686      -0.00034495       0.00111742      -0.00060490
15
Properties=species:S:1:pos:R:3:mp2_forces:R:3:forces:R:3 R1=H R2=CH3 R3=H R4=CH3 lg=Br nu=F rxn-id=526 mp2_energy=-77007.38182647791 energy=-77007.16938955779 free_energy=-77007.38182647791 pbc="F F F"
C        0.51905278      -0.01299877       0.07277471       0.04376992       0.00540625      -0.00260386       0.91571488      -0.01748756      -0.28421906
C        0.63110014       1.48383227       0.06633689      -0.02360307      -0.04868760      -0.00726110       0.07546838       0.01893027      -0.02979263
H        1.66548202       1.66075909       0.36623655      -0.03728564      -0.00718283      -0.01016618       0.03151047       0.17073048       0.04255953
Br      -1.90753862      -0.15421635       0.44996765       0.02600052       0.01520868      -0.01008715      -0.43551817      -0.03195435       0.06239325
F        2.31767765      -0.15109508      -0.78676706      -0.00351923       0.03462296       0.02124967      -0.43885806       0.01667197       0.26342911
H        0.31815399      -0.54486667      -0.83263374      -0.00085741       0.03371520       0.04604822      -0.27065729      -0.04569739      -0.02848054
H       -0.03552252       1.94484302       0.80057781       0.01735709      -0.05860259       0.00274031      -0.01744170      -0.13515218      -0.02537399
C        0.92972105      -0.76105057       1.30464872      -0.02619536       0.00323698      -0.06049356       0.08367768      -0.01503601      -0.01736842
H        2.01734564      -0.74386659       1.25721579      -0.01615677      -0.00555110       0.00233721       0.08885559      -0.08669618       0.19527077
H        0.56854995      -0.28011428       2.21671304       0.03024192       0.02986520      -0.08517174      -0.02488359       0.03709371      -0.09095432
H        0.57568703      -1.79173784       1.29250695      -0.00934146       0.00916699       0.04903360      -0.00791064       0.02231790      -0.04255220
C        0.41275425       2.04498485      -1.32747410      -0.00510519      -0.00192917       0.01742485       0.00884918       0.01943363      -0.01023074
H        1.13384840       1.55157453      -1.97897463      -0.00590104      -0.03770098       0.04189931      -0.01336409       0.04359871      -0.05118046
H       -0.60422819       1.83861646      -1.67091897      -0.00719118       0.01960470       0.01435729       0.00623567      -0.01094253       0.02609126
H        0.57592392       3.12712375      -1.35933728       0.01778691       0.00882731      -0.01930686      -0.00167831       0.01418954      -0.00959155
15
Properties=species:S:1:pos:R:3:mp2_forces:R:3:forces:R:3 R1=H R2=CH3 R3=H R4=CH3 lg=Br nu=F rxn-id=526 mp2_energy=-77007.38182647791 energy=-77007.35206698833 free_energy=-77007.38182647791 pbc="F F F"
C        0.58971669      -0.01542833       0.04862315       0.04376992       0.00540625      -0.00260386       1.78997347      -0.05894837      -0.60693373
C        0.63655364       1.48447830       0.06414465      -0.02360307      -0.04868760      -0.00726110       0.13830076       0.01488609      -0.05666649
H        1.66757563       1.67337885       0.36937434      -0.03728564      -0.00718283      -0.01016618       0.05338363       0.31922759       0.07899177
Br      -1.93937820      -0.15657527       0.45442773       0.02600052       0.01520868      -0.01008715      -0.80568429      -0.05973667       0.11180396
F        2.28245441      -0.14992385      -0.76580232      -0.00351923       0.03462296       0.02124967      -0.89122858       0.02942342       0.53087939
H        0.29799920      -0.54636761      -0.83175514      -0.00085741       0.03371520       0.04604822      -0.51042042      -0.03957595       0.01974304
H       -0.03680935       1.93426435       0.79862282       0.01735709      -0.05860259       0.00274031      -0.03239691      -0.26758415      -0.04893278
C        0.93580852      -0.76169756       1.30258169      -0.02619536       0.00323698      -0.06049356       0.15384696      -0.01687155      -0.05391990
H        2.02367163      -0.75043035       1.27193326      -0.01615677      -0.00555110       0.00233721       0.15994668      -0.16627509       0.37268024
H        0.56679693      -0.27718427       2.20957013       0.03024192       0.02986520      -0.08517174      -0.04463951       0.07465775      -0.18027093
H        0.57530804      -1.79003645       1.28922901      -0.00934146       0.00916699       0.04903360      -0.00975792       0.04332924      -0.08253625
C        0.41334226       2.04657093      -1.32811323      -0.00510519      -0.00192917       0.01742485       0.01455143       0.04083787      -0.01567136
H        1.13279805       1.55481466      -1.98277852      -0.00590104      -0.03770098       0.04189931      -0.02710869       0.08191330      -0.09669002
H       -0.60370281       1.83771994      -1.66907149      -0.00719118       0.01960470       0.01435729       0.01271766      -0.02247820       0.04720704
H        0.57587279       3.12820450      -1.36011374       0.01778691       0.00882731      -0.01930686      -0.00148427       0.02719470      -0.01968397
15
Properties=species:S:1:pos:R:3:mp2_forces:R:3:forces:R:3 R1=H R2=CH3 R3=H R4=CH3 lg=Br nu=F rxn-id=526 mp2_energy=-77007.38182647791 energy=-77007.65899520495 free_energy=-77007.38182647791 pbc="F F F"
C        0.66271198      -0.01910881       0.02122951       0.04376992       0.00540625      -0.00260386       2.36168455      -0.10398387      -0.85824863
C        0.64299643       1.48420447       0.06153477      -0.02360307      -0.04868760      -0.00726110       0.20944092      -0.01510595      -0.08975089
H        1.66990740       1.68748343       0.37267039      -0.03728564      -0.00718283      -0.01016618       0.07421709       0.45368967       0.10562643
Br      -1.97279336      -0.15918860       0.45880387       0.02600052       0.01520868      -0.01008715      -1.07662306      -0.08440089       0.13962782
F        2.24352473      -0.14888568      -0.74258238      -0.00351923       0.03462296       0.02124967      -1.25574349       0.03277840       0.74809989
H        0.27743548      -0.54563640      -0.82739876      -0.00085741       0.03371520       0.04604822      -0.66800411       0.01560831       0.12753594
H       -0.03802108       1.92177490       0.79636984       0.01735709      -0.05860259       0.00274031      -0.03953401      -0.40280255      -0.07170322
C        0.94296699      -0.76201015       1.29923294      -0.02619536       0.00323698      -0.06049356       0.22984243      -0.01286411      -0.11591482
H        2.03068205      -0.75795510       1.28854678      -0.01615677      -0.00555110       0.00233721       0.22494421      -0.24248431       0.53582909
H        0.56499573      -0.27374476       2.20104176       0.03024192       0.02986520      -0.08517174      -0.05877468       0.11202406      -0.27485814
H        0.57517190      -1.78811436       1.28547516      -0.00934146       0.00916699       0.04903360      -0.00370665       0.06362516      -0.11969177
C        0.41405563       2.04837446      -1.32879411      -0.00510519      -0.00192917       0.01742485       0.02179387       0.06014064      -0.01943700
H        1.13157903       1.55844842      -1.98716548      -0.00590104      -0.03770098       0.04189931      -0.03914603       0.11667346      -0.14228329
H       -0.60307783       1.83668091      -1.66708420      -0.00719118       0.01960470       0.01435729       0.01984976      -0.03324097       0.06442122
H        0.57587237       3.12946511      -1.36100776       0.01778691       0.00882731      -0.01930686      -0.00024079       0.04034295      -0.02925265
15
Properties=species:S:1:pos:R:3:mp2_forces:R:3:forces:R:3 R1=H R2=CH3 R3=H R4=CH3 lg=Br nu=F rxn-id=526 mp2_energy=-77007.38182647791 energy=-77008.09129726887 free_energy=-77007.38182647791 pbc="F F F"
C        0.74432277      -0.02406795      -0.01109342       0.04376992       0.00540625      -0.00260386       2.13310388      -0.15551660      -0.88375131
C        0.65369936       1.48216213       0.05727574      -0.02360307      -0.04868760      -0.00726110       0.27428368      -0.03841114      -0.09294611
H        1.67363780       1.70842970       0.37687223      -0.03728564      -0.00718283      -0.01016618       0.09864787       0.55461297       0.10952587
Br      -2.01693833      -0.16291617       0.46417351       0.02600052       0.01520868      -0.01008715      -1.16705039      -0.09844175       0.14113536
F        2.19664297      -0.14857255      -0.71413688      -0.00351923       0.03462296       0.02124967      -1.23327679       0.00914407       0.75227751
H        0.25294260      -0.54128609      -0.81707808      -0.00085741       0.03371520       0.04604822      -0.63367489       0.12754457       0.29207291
H       -0.03938616       1.90201553       0.79272762       0.01735709      -0.05860259       0.00274031      -0.02500237      -0.52794257      -0.10607717
C        0.95450400      -0.76223415       1.29264315      -0.02619536       0.00323698      -0.06049356       0.30445394       0.00829016      -0.15817186
H        2.04133530      -0.76944734       1.31304499      -0.01615677      -0.00555110       0.00233721       0.28186753      -0.30536384       0.64796823
H        0.56239911      -0.26858382       2.18723061       0.03024192       0.02986520      -0.08517174      -0.06332214       0.12957870      -0.37522671
H        0.57556700      -1.78497917       1.27975374      -0.00934146       0.00916699       0.04903360       0.00834687       0.07914573      -0.15219643
C        0.41548605       2.05076529      -1.32977668      -0.00510519      -0.00192917       0.01742485       0.04037940       0.04973708      -0.03382965
H        1.12999275       1.56395118      -1.99430328      -0.00590104      -0.03770098       0.04189931      -0.04687757       0.14879108      -0.18552274
H       -0.60203499       1.83519094      -1.66420836      -0.00719118       0.01960470       0.01435729       0.02819363      -0.03822050       0.07711346
H        0.57583721       3.13136030      -1.36225258       0.01778691       0.00882731      -0.01930686      -0.00007265       0.05705202      -0.03237136
15
Properties=species:S:1:pos:R:3:mp2_forces:R:3:forces:R:3 R1=H R2=CH3 R3=H R4=CH3 lg=Br nu=F rxn-id=526 mp2_energy=-77007.38182647791 energy=-77008.54961665453 free_energy=-77007.38182647791 pbc="F F F"
C        0.82675118      -0.02984227      -0.04280601       0.04376992       0.00540625      -0.00260386       0.93247723      -0.04494095      -0.32648458
C        0.67689067       1.47799164       0.05046885      -0.02360307      -0.04868760      -0.00726110       0.25897901      -0.06297485      -0.08994652
H        1.68110653       1.75275673       0.38497829      -0.03728564      -0.00718283      -0.01016618       0.08546550       0.48751398       0.09058710
Br      -2.09883591      -0.16994914       0.47424086       0.02600052       0.01520868      -0.01008715      -0.89971741      -0.07720491       0.10956123
F        2.15840320      -0.15771757      -0.69245142      -0.00351923       0.03462296       0.02124967      -0.42867205      -0.10140867       0.23994038
H        0.21754578      -0.52561954      -0.78784517      -0.00085741       0.03371520       0.04604822      -0.40054747       0.16185710       0.30621399
H       -0.04173973       1.85559508       0.78263768       0.01735709      -0.05860259       0.00274031      -0.03336982      -0.50463290      -0.10310462
C        0.97824767      -0.76164817       1.28177749      -0.02619536       0.00323698      -0.06049356       0.25789704      -0.00149388      -0.13740769
H        2.06238342      -0.79401496       1.36492103      -0.01615677      -0.00555110       0.00233721       0.23403572      -0.26903327       0.57052845
H        0.55586535      -0.25743744       2.15516936       0.03024192       0.02986520      -0.08517174      -0.07658601       0.12819892      -0.34114019
H        0.57821394      -1.77730413       1.26550145      -0.00934146       0.00916699       0.04903360       0.02977352       0.08616353      -0.15467956