17
Properties=species:S:1:pos:R:3:mp2_forces:R:3:forces:R:3 R1=CH3 R2=CN R3=CN R4=CH3 lg=Br nu=Br rxn-id=2077 mp2_energy=-149320.00869438876 energy=-149320.00869715877 free_energy=-149320.00869715877 pbc="F F F"
C        0.62714641      -0.09933188       0.01817224      -0.00399222       0.02945845      -0.03855861      -0.00398196       0.02940783      -0.03849198
C        1.14435812       1.35397852      -0.01714954      -0.01579362       0.00707883      -0.01690276      -0.01581545       0.00704079      -0.01686931
H        2.24942181       1.25092003      -0.01633963      -0.00493294      -0.02113249       0.03487407      -0.00491491      -0.02112756       0.03486500
Br      -1.36469849      -0.11365513       0.09198384      -0.06346076      -0.00693888       0.01864872      -0.06343494      -0.00691613       0.01861349
Br       4.44675012       0.47261816      -0.65528038      -0.00417006       0.03680446      -0.07505321      -0.00417281       0.03680416      -0.07505307
C        1.06527931      -0.89878847      -1.20350819       0.01704065      -0.01244376       0.00369127       0.01702998      -0.01244549       0.00371535
H        0.58655390      -0.52157058      -2.10871056      -0.01872247       0.06368392       0.07126210      -0.01873350       0.06369071       0.07123098
H        2.15218334      -0.79831143      -1.29591611       0.02228813      -0.03328369       0.04009575       0.02229370      -0.03328074       0.04009144
H        0.78429472      -1.94576477      -1.08083274       0.03765652      -0.02021235       0.01211586       0.03765744      -0.02021105       0.01211202
C        1.05179136      -0.75848598       1.25459506      -0.03378372       0.05538031      -0.00732303      -0.03370368       0.05525351      -0.00715038
N        1.35523168      -1.29924975       2.25398704       0.01198353      -0.00154662      -0.04968738       0.01190318      -0.00140167      -0.04987800
C        0.73144111       2.09619074       1.17152370      -0.01201565      -0.02502045       0.00986393      -0.01209284      -0.02483408       0.01005796
N        0.39485319       2.74462385       2.09198513      -0.00094380      -0.01414407       0.01584500      -0.00087619      -0.01431007       0.01565041
C        0.74218124       2.11983846      -1.27829969       0.00548299       0.01519240      -0.03982803       0.00547856       0.01519688      -0.03982025
H        1.24072131       1.69828322      -2.14960706       0.03240281      -0.07798841      -0.01395438       0.03241985      -0.07800187      -0.01398402
H       -0.34000262       2.10634736      -1.41786339      -0.02337322      -0.00850107      -0.04312729      -0.02339658      -0.00850110      -0.04312989
H        1.06310459       3.15909542      -1.19807213       0.05433392       0.01361342       0.07803799       0.05434025       0.01363588       0.07804022
17
Properties=species:S:1:pos:R:3:mp2_forces:R:3:forces:R:3 R1=CH3 R2=CN R3=CN R4=CH3 lg=Br nu=Br rxn-id=2077 mp2_energy=-149320.00869438876 energy=-149320.03115584046 free_energy=-149320.00869715877 pbc="F F F"
C        0.61616951      -0.09028108       0.02497058      -0.00399222       0.02945845      -0.03855861      -0.00708481      -0.00373337       0.00357102
C        1.13067240       1.36174063      -0.00639251      -0.01579362       0.00707883      -0.01690276      -0.00236476      -0.00564225       0.00488302
H        2.23493127       1.25491725       0.02182593      -0.00493294      -0.02113249       0.03487407      -0.00234461      -0.00584345       0.00816512
Br      -1.37509796      -0.11484734       0.12690341      -0.06346076      -0.00693888       0.01864872      -0.00748381       0.00155693      -0.00675823
Br       4.41992848       0.40063143      -0.64685993      -0.00417006       0.03680446      -0.07505321       0.00158746       0.06107525      -0.05687745
C        1.04773778      -0.86997815      -1.21010142       0.01704065      -0.01244376       0.00369127      -0.00126426      -0.00713398       0.00822328
H        0.49719062      -0.52367126      -2.08524114      -0.01872247       0.06368392       0.07126210       0.02545481       0.01420124      -0.00107945
H        2.12266147      -0.70636446      -1.34629542       0.02228813      -0.03328369       0.04009575       0.00611458      -0.03037928       0.02817431
H        0.85124035      -1.93352450      -1.07162280       0.03765652      -0.02021235       0.01211586      -0.03405224      -0.00333919      -0.00289528
C        1.06770119      -0.75173068       1.24823565      -0.03378372       0.05538031      -0.00732303      -0.00803422      -0.00644765       0.00709606
N        1.41392746      -1.29764503       2.23008456       0.01198353      -0.00154662      -0.04968738      -0.00234278      -0.00584070      -0.00167744
C        0.70096366       2.10165718       1.17744854      -0.01201565      -0.02502045       0.00986393      -0.00614327      -0.00175807       0.00115371
N        0.36531034       2.73587439       2.10811288      -0.00094380      -0.01414407       0.01584500      -0.00892839       0.00412128      -0.00403922
C        0.76545846       2.10678773      -1.29132749       0.00548299       0.01519240      -0.03982803       0.00875771      -0.00364673       0.00291761
H        1.31661157       1.67540361      -2.12687134       0.03240281      -0.07798841      -0.01395438       0.00701970      -0.01015339       0.00516832
H       -0.30790729       2.06494339      -1.49045806      -0.02337322      -0.00850107      -0.04312729       0.00854142       0.01053368      -0.00002341
H        1.06311180       3.15282464      -1.20174386       0.05433392       0.01361342       0.07803799       0.02256746      -0.00757032       0.00399804
17
Properties=species:S:1:pos:R:3:mp2_forces:R:3:forces:R:3 R1=CH3 R2=CN R3=CN R4=CH3 lg=Br nu=Br rxn-id=2077 mp2_energy=-149320.00869438876 energy=-149320.0085308023 free_energy=-149320.00869715877 pbc="F F F"
C        0.62733596      -0.08488696       0.02193084      -0.00399222       0.02945845      -0.03855861      -0.01063456      -0.00511083       0.00409686
C        1.13272777       1.37051798      -0.01060814      -0.01579362       0.00707883      -0.01690276      -0.00391734      -0.00805322       0.00483620
H        2.23689326       1.26659831       0.01859053      -0.00493294      -0.02113249       0.03487407      -0.00356353      -0.00866166       0.00741999
Br      -1.36343692      -0.11988067       0.14793720      -0.06346076      -0.00693888       0.01864872      -0.01223974       0.00056268      -0.00954603
Br       4.40854412       0.30122623      -0.55965076      -0.00417006       0.03680446      -0.07505321       0.01335653       0.07788223      -0.06444674
C        1.04556590      -0.85654463      -1.22346732       0.01704065      -0.01244376       0.00369127      -0.00123630      -0.00882611       0.01097492
H        0.45019999      -0.53934004      -2.08014965      -0.01872247       0.06368392       0.07126210       0.03823920       0.02699569      -0.00440893
H        2.10896431      -0.65856828      -1.39543735       0.02228813      -0.03328369       0.04009575       0.01290549      -0.04403469       0.04340502
H        0.89798855      -1.92600300      -1.07070883       0.03765652      -0.02021235       0.01211586      -0.05324040      -0.00531774      -0.00668113
C        1.09157600      -0.74708846       1.23998707      -0.03378372       0.05538031      -0.00732303      -0.00832378      -0.01003564       0.01194613
N        1.43250915      -1.29331998       2.22358343       0.01198353      -0.00154662      -0.04968738      -0.00065380      -0.00540993      -0.00587110
C        0.70161978       2.10790390       1.17432934      -0.01201565      -0.02502045       0.00986393      -0.00579009      -0.00237287       0.00056725
N        0.36476962       2.73895298       2.10670552      -0.00094380      -0.01414407       0.01584500      -0.00720746       0.00636169      -0.00616056
C        0.75792389       2.11007044      -1.29616170       0.00548299       0.01519240      -0.03982803       0.00757110      -0.00504250       0.00322695
H        1.32068831       1.69045750      -2.13016963       0.03240281      -0.07798841      -0.01395438       0.00205347      -0.01335065       0.00370778
H       -0.31324692       2.04354353      -1.50038251      -0.02337322      -0.00850107      -0.04312729       0.00631580       0.01440248       0.00270084
H        1.02998832       3.16309894      -1.20566044       0.05433392       0.01361342       0.07803799       0.02636539      -0.00998893       0.00423256
17
Properties=species:S:1:pos:R:3:mp2_forces:R:3:forces:R:3 R1=CH3 R2=CN R3=CN R4=CH3 lg=Br nu=Br rxn-id=2077 mp2_energy=-149320.00869438876 energy=-149319.97822533987 free_energy=-149320.00869715877 pbc="F F F"
C        0.64183374      -0.07891761       0.01738502      -0.00399222       0.02945845      -0.03855861      -0.01679832      -0.00700331       0.00494216
C        1.13610786       1.38071282      -0.01608644      -0.01579362       0.00707883      -0.01690276      -0.00665616      -0.01171223       0.00450476
H        2.24011611       1.28162556       0.01288486      -0.00493294      -0.02113249       0.03487407      -0.00603668      -0.01472583       0.00619342
Br      -1.34849435      -0.12494433       0.16585395      -0.06346076      -0.00693888       0.01864872      -0.01967144      -0.00041575      -0.01251897
Br       4.38631528       0.19528171      -0.46995411      -0.00417006       0.03680446      -0.07505321       0.03127052       0.09258678      -0.06899384
C        1.04654997      -0.84494264      -1.23714085       0.01704065      -0.01244376       0.00369127      -0.00216003      -0.00918091       0.01381443
H        0.40643727      -0.56240837      -2.07348677      -0.01872247       0.06368392       0.07126210       0.04828496       0.04101597      -0.00860619
H        2.09490228      -0.61265969      -1.44807906       0.02228813      -0.03328369       0.04009575       0.01987603      -0.05256573       0.06022595
H        0.95142608      -1.91794057      -1.06840815       0.03765652      -0.02021235       0.01211586      -0.07041847      -0.00792438      -0.01090867
C        1.11669996      -0.74074862       1.23156171      -0.03378372       0.05538031      -0.00732303      -0.00946983      -0.01425845       0.01769128
N        1.44653910      -1.28686450       2.21908854       0.01198353      -0.00154662      -0.04968738       0.00423637      -0.00348979      -0.01163367
C        0.70333466       2.11325715       1.17138525      -0.01201565      -0.02502045       0.00986393      -0.00499794      -0.00323015      -0.00061396
N        0.36395712       2.73868178       2.10662766      -0.00094380      -0.01414407       0.01584500      -0.00380655       0.00962686      -0.00898579
C        0.74876547       2.11613836      -1.30044641       0.00548299       0.01519240      -0.03982803       0.00596189      -0.00713065       0.00328214
H        1.31714220       1.70654227      -2.13581185       0.03240281      -0.07798841      -0.01395438      -0.00281541      -0.01623696       0.00179439
H       -0.32095418       2.02939132      -1.50449595      -0.02337322      -0.00850107      -0.04312729       0.00373055       0.01774712       0.00408056
H        0.99993253       3.17453315      -1.21020980       0.05433392       0.01361342       0.07803799       0.02947051      -0.01310258       0.00573199
17
Properties=species:S:1:pos:R:3:mp2_forces:R:3:forces:R:3 R1=CH3 R2=CN R3=CN R4=CH3 lg=Br nu=Br rxn-id=2077 mp2_energy=-149320.00869438876 energy=-149319.94353465343 free_energy=-149320.00869715877 pbc="F F F"
C        0.66027305      -0.07258782       0.01202285      -0.00399222       0.02945845      -0.03855861      -0.02663911      -0.00956793       0.00601329
C        1.14129850       1.39221829      -0.02277976      -0.01579362       0.00707883      -0.01690276      -0.01110895      -0.01695856       0.00424330
H        2.24514507       1.30132635       0.00492130      -0.00493294      -0.02113249       0.03487407      -0.01035539      -0.02629716       0.00457698
Br      -1.32965627      -0.13002487       0.18254039      -0.06346076      -0.00693888       0.01864872      -0.02941576      -0.00156205      -0.01763070
Br       4.35711538       0.08862472      -0.37903800      -0.00417006       0.03680446      -0.07505321       0.05016513       0.10283807      -0.07194266
C        1.04991438      -0.83519209      -1.25072346       0.01704065      -0.01244376       0.00369127      -0.00353935      -0.00832088       0.01689318
H        0.37125961      -0.58381472      -2.06640666      -0.01872247       0.06368392       0.07126210       0.05451038       0.05125306      -0.01295132
H        2.08245531      -0.57644941      -1.49931550       0.02228813      -0.03328369       0.04009575       0.02541718      -0.05221364       0.07715108
H        0.99940355      -1.90898458      -1.06848671       0.03765652      -0.02021235       0.01211586      -0.07884977      -0.01027360      -0.01367888
C        1.14454553      -0.73295294       1.22340305      -0.03378372       0.05538031      -0.00732303      -0.01370924      -0.01906836       0.02440515
N        1.45810259      -1.27805911       2.21689710       0.01198353      -0.00154662      -0.04968738       0.01280074      -0.00049161      -0.01952313
C        0.70518144       2.11739462       1.16830074      -0.01201565      -0.02502045       0.00986393      -0.00340658      -0.00395712      -0.00205300
N        0.35973293       2.73322012       2.10767715      -0.00094380      -0.01414407       0.01584500       0.00296008       0.01623188      -0.01268272
C        0.73805585       2.12365881      -1.30463267       0.00548299       0.01519240      -0.03982803       0.00422639      -0.00922824       0.00355860
H        1.30520279       1.72084051      -2.14427366       0.03240281      -0.07798841      -0.01395438      -0.00610528      -0.01734901       0.00046172
H       -0.33145230       2.02157453      -1.50215153      -0.02337322      -0.00850107      -0.04312729       0.00129682       0.02109322       0.00323657
H        0.97403368       3.18594536      -1.21728706       0.05433392       0.01361342       0.07803799       0.03175272      -0.01612808       0.00992255
17
Properties=species:S:1:pos:R:3:mp2_forces:R:3:forces:R:3 R1=CH3 R2=CN R3=CN R4=CH3 lg=Br nu=Br rxn-id=2077 mp2_energy=-149320.00869438876 energy=-149319.90733099807 free_energy=-149320.00869715877 pbc="F F F"
C        0.68184240      -0.06643415       0.00739121      -0.00399222       0.02945845      -0.03855861      -0.04030174      -0.01184940       0.00630962
C        1.14824043       1.40406424      -0.02953151      -0.01579362       0.00707883      -0.01690276      -0.01716455      -0.02260431       0.00446472
H        2.25191436       1.32543823      -0.00316422      -0.00493294      -0.02113249       0.03487407      -0.01617037      -0.04608185       0.00279940
Br      -1.30787554      -0.13376730       0.19968404      -0.06346076      -0.00693888       0.01864872      -0.04044747      -0.00614709      -0.02247818
Br       4.32268193      -0.00958793      -0.29072099      -0.00417006       0.03680446      -0.07505321       0.06972001       0.10795989      -0.07633740
C        1.05360480      -0.82636806      -1.26362125       0.01704065      -0.01244376       0.00369127      -0.00511274      -0.00650125       0.01916694
H        0.34259329      -0.59755826      -2.05804536      -0.01872247       0.06368392       0.07126210       0.05833155       0.05535161      -0.02128166
H        2.07093442      -0.55004722      -1.54790802       0.02228813      -0.03328369       0.04009575       0.03148069      -0.04381647       0.09526746
H        1.03625780      -1.89966443      -1.07296352       0.03765652      -0.02021235       0.01211586      -0.07899713      -0.01154011      -0.01216621
C        1.17468349      -0.72546614       1.21630126      -0.03378372       0.05538031      -0.00732303      -0.02205757      -0.02324720       0.03036970
N        1.46842331      -1.26975363       2.21645944       0.01198353      -0.00154662      -0.04968738       0.02298569       0.00370870      -0.02901429
C        0.70649756       2.12071070       1.16501822      -0.01201565      -0.02502045       0.00986393      -0.00110751      -0.00348361      -0.00291396
N        0.35207395       2.72401765       2.10914511      -0.00094380      -0.01414407       0.01584500       0.01175221       0.02679934      -0.01632696
C        0.72791593       2.12987825      -1.30920470       0.00548299       0.01519240      -0.03982803       0.00250024      -0.00987463       0.00452079
H        1.29174729       1.73199384      -2.15356122       0.03240281      -0.07798841      -0.01395438      -0.00774816      -0.01696340       0.00100394
H       -0.34161414       2.01381105      -1.49807744      -0.02337322      -0.00850107      -0.04312729      -0.00131978       0.02548265       0.00178207
H        0.95068982       3.19547091      -1.22653348       0.05433392       0.01361342       0.07803799       0.03365665      -0.01719286       0.01483402
17
Properties=species:S:1:pos:R:3:mp2_forces:R:3:forces:R:3 R1=CH3 R2=CN R3=CN R4=CH3 lg=Br nu=Br rxn-id=2077 mp2_energy=-149320.00869438876 energy=-149319.84885418403 free_energy=-149320.00869715877 pbc="F F F"
C        0.71703111      -0.05804767       0.00224784      -0.00399222       0.02945845      -0.03855861      -0.07056519      -0.01337735       0.00675804
C        1.16066181       1.42125094      -0.03593975      -0.01579362       0.00707883      -0.01690276      -0.02884817      -0.03141824       0.00328204
H        2.26385367       1.36876745      -0.00937372      -0.00493294      -0.02113249       0.03487407      -0.02568468      -0.09846974      -0.00381572
Br      -1.27440218      -0.13443637       0.21854146      -0.06346076      -0.00693888       0.01864872      -0.05944083      -0.01741010      -0.01886868
Br       4.25914444      -0.12716055      -0.18873765      -0.00417006       0.03680446      -0.07505321       0.11349949       0.10530789      -0.08004896
C        1.06017685      -0.81665466      -1.28016341       0.01704065      -0.01244376       0.00369127      -0.01108595      -0.00071440       0.02208663
H        0.30175552      -0.62041291      -2.03833368      -0.01872247       0.06368392       0.07126210       0.06317521       0.05325571      -0.04512832
H        2.05062560      -0.51821830      -1.62360410       0.02228813      -0.03328369       0.04009575       0.04175322      -0.01685745       0.13211782
H        1.08889322      -1.88766434      -1.07868403       0.03765652      -0.02021235       0.01211586      -0.07349705      -0.00813081      -0.00533681
C        1.21431744      -0.71793100       1.20950465      -0.03378372       0.05538031      -0.00732303      -0.03850491      -0.02213927       0.02908181
N        1.46845242      -1.26437351       2.21961211       0.01198353      -0.00154662      -0.04968738       0.04599379       0.00987125      -0.03723290
C        0.70734634       2.12543454       1.16231465      -0.01201565      -0.02502045       0.00986393       0.00445679      -0.00046663      -0.00445078
N        0.34227865       2.71196110       2.11292081      -0.00094380      -0.01414407       0.01584500       0.01906523       0.04045828      -0.02190434
C        0.71832061       2.13594808      -1.31438981       0.00548299       0.01519240      -0.03982803      -0.00020319      -0.00744643       0.00506229
H        1.28255490       1.74552425      -2.16212838       0.03240281      -0.07798841      -0.01395438      -0.01064386      -0.01385739       0.00139585
H       -0.34957121       1.99641243      -1.49509870      -0.02337322      -0.00850107      -0.04312729      -0.00613938       0.03614970      -0.00202984
H        0.91917191       3.20633828      -1.23802072       0.05433392       0.01361342       0.07803799       0.03666949      -0.01475501       0.01903187
17
Properties=species:S:1:pos:R:3:mp2_forces:R:3:forces:R:3 R1=CH3 R2=CN R3=CN R4=CH3 lg=Br nu=Br rxn-id=2077 mp2_energy=-149320.00869438876 energy=-149319.71559322692 free_energy=-149320.00869715877 pbc="F F F"
C        0.79469263      -0.04468872      -0.00658059      -0.00399222       0.02945845      -0.03855861      -0.18512369      -0.01192482       0.01326012
C        1.19107124       1.45325066      -0.03937927      -0.01579362       0.00707883      -0.01690276      -0.06631649      -0.05220174      -0.00293879
H        2.29130130       1.47718893      -0.00774322      -0.00493294      -0.02113249       0.03487407      -0.04579511      -0.26748490      -0.02561069
Br      -1.21119450      -0.12757558       0.22983980      -0.06346076      -0.00693888       0.01864872      -0.06404919      -0.03273420       0.00970711
Br       4.13644011      -0.26070285      -0.08213097      -0.00417006       0.03680446      -0.07505321       0.24114982       0.07668021      -0.07020954
C        1.07876793      -0.81233093      -1.30458748       0.01704065      -0.01244376       0.00369127      -0.04183937       0.01957656       0.03334720
H        0.24838421      -0.65399031      -1.99180716      -0.01872247       0.06368392       0.07126210       0.07006855       0.02340150      -0.11939646
H        2.01927425      -0.50853620      -1.75885427       0.02228813      -0.03328369       0.04009575       0.05468738       0.07139723       0.23958228
H        1.15240190      -1.87811426      -1.08542184       0.03765652      -0.02021235       0.01211586      -0.05272226       0.01510283       0.00905935
C        1.27181815      -0.71190685       1.20627848      -0.03378372       0.05538031      -0.00732303      -0.06080783      -0.00393522       0.00229455
N        1.42180340      -1.26579905       2.23410401       0.01198353      -0.00154662      -0.04968738       0.11325625       0.01926105      -0.04506881
C        0.70577759       2.13015368       1.16359373      -0.01201565      -0.02502045       0.00986393       0.01901313       0.01940729      -0.00913264
N        0.32602829       2.69069793       2.12404865      -0.00094380      -0.01414407       0.01584500       0.01732357       0.05641575      -0.02800103
C        0.70969778       2.14166540      -1.31713355       0.00548299       0.01519240      -0.03982803      -0.00728074       0.00437504       0.00075629
H        1.27328457       1.75729619      -2.16837057       0.03240281      -0.07798841      -0.01395438      -0.01404680      -0.00226844       0.00076981
H       -0.35435548       1.96135119      -1.47858103      -0.02337322      -0.00850107      -0.04312729      -0.01715459       0.06724638      -0.02909707
H        0.87541770       3.21877855      -1.25660712       0.05433392       0.01361342       0.07803799       0.03963737      -0.00231450       0.02067831
17
Properties=species:S:1:pos:R:3:mp2_forces:R:3:forces:R:3 R1=CH3 R2=CN R3=CN R4=CH3 lg=Br nu=Br rxn-id=2077 mp2_energy=-149320.00869438876 energy=-149319.4948600111 free_energy=-149320.00869715877 pbc="F F F"
C        0.88993983      -0.03783283      -0.01320972      -0.00399222       0.02945845      -0.03855861      -0.59678769       0.00315880       0.04080142
C        1.23091030       1.47857646      -0.03777171      -0.01579362       0.00707883      -0.01690276      -0.14653747      -0.06130730      -0.00085271
H        2.32114733       1.60669958       0.00148934      -0.00493294      -0.02113249       0.03487407      -0.07247554      -0.49836632      -0.03975047
Br      -1.17847289      -0.10725570       0.22435962      -0.06346076      -0.00693888       0.01864872       0.24227559      -0.04730356       0.01583750
Br       4.01618253      -0.29415355      -0.04912410      -0.00417006       0.03680446      -0.07505321       0.47984305       0.00756139      -0.03039889
C        1.10210081      -0.81959935      -1.32144254       0.01704065      -0.01244376       0.00369127      -0.11913103       0.04693845       0.04749349
H        0.21788805      -0.65678807      -1.93307330      -0.01872247       0.06368392       0.07126210       0.05559642      -0.06486921      -0.26775112
H        1.99589744      -0.54244396      -1.87627299       0.02228813      -0.03328369       0.04009575       0.05740469       0.16784263       0.37772076
H        1.17601329      -1.88453797      -1.09476082       0.03765652      -0.02021235       0.01211586      -0.04368444       0.04760240       0.03016347
C        1.30222246      -0.71574067       1.21544457      -0.03378372       0.05538031      -0.00732303      -0.01453436       0.02348407      -0.04307135
N        1.35124718      -1.27306499       2.25291893       0.01198353      -0.00154662      -0.04968738       0.16415169       0.02906515      -0.06620934
C        0.70382250       2.12032448       1.16695063      -0.01201565      -0.02502045       0.00986393       0.03631660       0.10333688      -0.00454738
N        0.31380163       2.66380537       2.13270763      -0.00094380      -0.01414407       0.01584500      -0.00346300       0.07141389       0.00233441
C        0.71232317       2.13619660      -1.31548881       0.00548299       0.01519240      -0.03982803      -0.02184970       0.03277579      -0.00475485
H        1.27265250       1.75538380      -2.17108609       0.03240281      -0.07798841      -0.01395438      -0.01221304       0.00344484       0.01765875
H       -0.34719904       1.91982535      -1.45207060      -0.02337322      -0.00850107      -0.04312729      -0.03248860       0.10928649      -0.07981390
H        0.85013401       3.21734321      -1.26890246       0.05433392       0.01361342       0.07803799       0.02757683       0.02593562       0.00514021
17
Properties=species:S:1:pos:R:3:mp2_forces:R:3:forces:R:3 R1=CH3 R2=CN R3=CN R4=CH3 lg=Br nu=Br rxn-id=2077 mp2_energy=-149320.00869438876 energy=-149319.21195841173 free_energy=-149320.00869715877 pbc="F F F"
C        0.99145415      -0.03914518      -0.01959516      -0.00399222       0.02945845      -0.03855861      -1.20097049       0.03028930       0.07974782
C        1.25622077       1.48796493      -0.03731628      -0.01579362       0.00707883      -0.01690276      -0.18520730      -0.04535231       0.00452964
H        2.33378042       1.68938913       0.00756895      -0.00493294      -0.02113249       0.03487407      -0.06280947      -0.53270207      -0.03679714
Br      -1.21885224      -0.09859159       0.22137254      -0.06346076      -0.00693888       0.01864872       0.65798749      -0.02267032      -0.02802099
Br       3.92777422      -0.29281502      -0.04642614      -0.00417006       0.03680446      -0.07505321       0.65938036      -0.04530526       0.00391948
C        1.12283200      -0.82719840      -1.32959355       0.01704065      -0.01244376       0.00369127      -0.15360051       0.04749089       0.04433859
H        0.20810665      -0.64821103      -1.88732378      -0.01872247       0.06368392       0.07126210       0.03841954      -0.11997407      -0.33876347
H        1.98515277      -0.56584134      -1.94016298       0.02228813      -0.03328369       0.04009575       0.05396038       0.17496466       0.37544105
H        1.18907099      -1.89221376      -1.10144101       0.03765652      -0.02021235       0.01211586      -0.03331672       0.04514617       0.02583016
C        1.30418491      -0.72160038       1.22475819      -0.03378372       0.05538031      -0.00732303       0.11731529       0.02519794      -0.04824555
N        1.31924480      -1.27841102       2.26467975       0.01198353      -0.00154662      -0.04968738       0.13163728       0.02367227      -0.05442101
C        0.69957095       2.10320726       1.16736286      -0.01201565      -0.02502045       0.00986393       0.05861503       0.16942701       0.00419115
N        0.31700631       2.65480024       2.13119889      -0.00094380      -0.01414407       0.01584500      -0.02959638       0.06131542       0.03240324
C        0.71624995       2.12946607      -1.31413166       0.00548299       0.01519240      -0.03982803      -0.02225516       0.04945238      -0.00476471
H        1.27489331       1.75435960      -2.17382443       0.03240281      -0.07798841      -0.01395438      -0.00858472      -0.00162376       0.02951765
H       -0.34128288       1.89988809      -1.43834265      -0.02337322      -0.00850107      -0.04312729      -0.02945861       0.10162369      -0.07931563
H        0.84520404       3.21169018      -1.26811596       0.05433392       0.01361342       0.07803799       0.00848397       0.03904806      -0.00959028
17
Properties=species:S:1:pos:R:3:mp2_forces:R:3:forces:R:3 R1=CH3 R2=CN R3=CN R4=CH3 lg=Br nu=Br rxn-id=2077 mp2_energy=-149320.00869438876 energy=-149318.96232134383 free_energy=-149320.00869715877 pbc="F F F"
C        1.08796182      -0.04172361      -0.02582415      -0.00399222       0.02945845      -0.03855861      -1.26098440       0.04517513       0.07972877
C        1.27151900       1.49176235      -0.03763302      -0.01579362       0.00707883      -0.01690276      -0.14246585      -0.02570602       0.00545082
H        2.33905018       1.73296341       0.01005299      -0.00493294      -0.02113249       0.03487407      -0.03088089      -0.39327245      -0.02908581
Br      -1.26853834      -0.09684184       0.22356112      -0.06346076      -0.00693888       0.01864872       0.62473666      -0.00077661      -0.04191433
Br       3.87186650      -0.29022859      -0.04478098      -0.00417006       0.03680446      -0.07505321       0.58713334      -0.05502042       0.01150518
C        1.13522558      -0.83067103      -1.33366187       0.01704065      -0.01244376       0.00369127      -0.10925483       0.02960911       0.02304879
H        0.20504957      -0.63854590      -1.86078258      -0.01872247       0.06368392       0.07126210       0.03147767      -0.10666111      -0.28058656