18
Properties=species:S:1:pos:R:3:mp2_forces:R:3:forces:R:3 R1=NH2 R2=CN R3=CH3 R4=CH3 lg=Cl nu=Cl rxn-id=2653 mp2_energy=-33310.92382286445 energy=-33310.92382286445 free_energy=-33310.92382286445 pbc="F F F"
C        0.56767648      -0.10043632       0.05727533       0.00443131      -0.04659405       0.06454128       0.00443131      -0.04659405       0.06454128
C        0.89928137       1.39938698       0.03671333       0.02238776      -0.01867533      -0.00423926       0.02238776      -0.01867533      -0.00423926
H        1.99674442       1.37879545       0.06706453       0.03609961       0.05798956       0.01878741       0.03609961       0.05798956       0.01878741
Cl      -1.30240728      -0.29075650      -0.00080226       0.02327370      -0.01447061       0.01217823       0.02327370      -0.01447061       0.01217823
Cl       4.18599050      -0.12085627      -0.28023228       0.02853385       0.04510070      -0.05969970       0.02853385       0.04510070      -0.05969970
N        1.15904170      -0.84081871      -1.00019045      -0.01704369      -0.03079900       0.02125035      -0.01704369      -0.03079900       0.02125035
H        1.58090578      -0.20175863      -1.66108161      -0.03153733      -0.02596407      -0.01915552      -0.03153733      -0.02596407      -0.01915552
H        1.94602279      -1.37567245      -0.64429456       0.00641693       0.01646374       0.00244876       0.00641693       0.01646374       0.00244876
C        0.91930489      -0.68204886       1.35781636      -0.02998366      -0.02902721      -0.00911776      -0.02998366      -0.02902721      -0.00911776
N        1.19254302      -1.14129742       2.40357851      -0.04257412      -0.00723553       0.04304487      -0.04257412      -0.00723553       0.04304487
C        0.36870854       2.16971878       1.24120301       0.00456833      -0.02718163      -0.04494192       0.00456833      -0.02718163      -0.04494192
H       -0.72407401       2.21386137       1.23204354       0.02458270       0.01314647       0.01313540       0.02458270       0.01314647       0.01313540
H        0.69425158       1.72392546       2.18498477      -0.01577993       0.00864184      -0.05203502      -0.01577993       0.00864184      -0.05203502
H        0.75919375       3.19177515       1.20075716      -0.04162619      -0.03347508       0.04658082      -0.04162619      -0.03347508       0.04658082
C        0.44734521       2.05464137      -1.26617955      -0.00959971       0.02205360      -0.01083842      -0.00959971       0.02205360      -0.01083842
H        0.99039778       1.68947725      -2.14047681       0.02135452      -0.00997414       0.01891274       0.02135452      -0.00997414       0.01891274
H       -0.61911295       1.89309500      -1.43149908      -0.03119086       0.03956496      -0.01167499      -0.03119086       0.03956496      -0.01167499
H        0.62421445       3.13027157      -1.20494373       0.04768677       0.04043580      -0.02917729       0.04768677       0.04043580      -0.02917729
18
Properties=species:S:1:pos:R:3:mp2_forces:R:3:forces:R:3 R1=NH2 R2=CN R3=CH3 R4=CH3 lg=Cl nu=Cl rxn-id=2653 mp2_energy=-33310.92382286445 energy=-33311.21920719452 free_energy=-33310.92382286445 pbc="F F F"
C        0.56469085      -0.11215240       0.13618554       0.00443131      -0.04659405       0.06454128      -0.00096080       0.00053796      -0.00104262
C        0.92013977       1.38497183       0.12477786       0.02238776      -0.01867533      -0.00423926      -0.00124598       0.00047261      -0.00204285
H        2.00969986       1.39265122       0.25365149       0.03609961       0.05798956       0.01878741      -0.00105739       0.00026648      -0.00359338
Cl      -1.26597908      -0.31511591      -0.12875474       0.02327370      -0.01447061       0.01217823      -0.00042461      -0.00240249       0.00918725
Cl       3.98593076       0.68060944      -1.64685625       0.02853385       0.04510070      -0.05969970       0.01009220      -0.00480884       0.03186475
N        1.25844862      -0.80777223      -0.87589027      -0.01704369      -0.03079900       0.02125035      -0.00652110       0.00270315      -0.00746483
H        2.16397150      -0.36748806      -1.10077337      -0.03153733      -0.02596407      -0.01915552       0.00023549      -0.00383208       0.00369296
H        1.38654233      -1.78539586      -0.65084381       0.00641693       0.01646374       0.00244876      -0.01679686      -0.00061714      -0.01449012
C        0.76292767      -0.68040261       1.48258387      -0.02998366      -0.02902721      -0.00911776       0.00915875       0.00096968      -0.00186603
N        0.94917590      -1.16232370       2.53855650      -0.04257412      -0.00723553       0.04304487       0.01825443       0.00286264      -0.00236199
C        0.27327065       2.15775085       1.26789507       0.00456833      -0.02718163      -0.04494192       0.00004291       0.00062889      -0.00141813
H       -0.81563942       2.16859108       1.16828536       0.02458270       0.01314647       0.01313540      -0.00011419       0.00223109      -0.00096459
H        0.52551500       1.73363686       2.24228335      -0.01577993       0.00864184      -0.05203502      -0.00005452      -0.00018206      -0.00162060
H        0.62367998       3.19348913       1.25173102      -0.04162619      -0.03347508       0.04658082       0.00139536       0.00029923      -0.00106761
C        0.63082891       2.02314650      -1.22915942      -0.00959971       0.02205360      -0.01083842      -0.00265751       0.00019374      -0.00172942
H        1.15504276       1.49813088      -2.02504017       0.02135452      -0.00997414       0.01891274      -0.00045484       0.00138927      -0.00217252
H       -0.44117854       2.03644742      -1.44045770      -0.03119086       0.03956496      -0.01167499      -0.00346860      -0.00267191      -0.00250268
H        0.99896050       3.05252879      -1.21643812       0.04768677       0.04043580      -0.02917729      -0.00542273       0.00195979      -0.00040761
18
Properties=species:S:1:pos:R:3:mp2_forces:R:3:forces:R:3 R1=NH2 R2=CN R3=CH3 R4=CH3 lg=Cl nu=Cl rxn-id=2653 mp2_energy=-33310.92382286445 energy=-33311.17679309039 free_energy=-33310.92382286445 pbc="F F F"
C        0.57071131      -0.10347600       0.15526551       0.00443131      -0.04659405       0.06454128      -0.01804533      -0.00624370      -0.00909205
C        0.93695522       1.39205696       0.15540887       0.02238776      -0.01867533      -0.00423926      -0.01452588      -0.00592950      -0.00628650
H        2.02313954       1.40100778       0.31510898       0.03609961       0.05798956       0.01878741      -0.01513730      -0.01730677      -0.00475591
Cl      -1.27372982      -0.27355775      -0.17639561       0.02327370      -0.01447061       0.01217823       0.01621593      -0.02861047       0.00763397
Cl       3.89482964       0.62083884      -2.01051364       0.02853385       0.04510070      -0.05969970       0.01955076      -0.00784091       0.04533740
N        1.29040529      -0.81638879      -0.81166213      -0.01704369      -0.03079900       0.02125035      -0.01905333      -0.00347021      -0.02515019
H        2.13268077      -0.33785790      -1.15975264      -0.03153733      -0.02596407      -0.01915552       0.00554871      -0.00546390       0.02057724
H        1.49814553      -1.76632862      -0.53913578       0.00641693       0.01646374       0.00244876      -0.01932500      -0.00174236      -0.01598284
C        0.68378380      -0.68758144       1.50180929      -0.02998366      -0.02902721      -0.00911776       0.02168402       0.00643994      -0.00310232
N        0.78197148      -1.20092833       2.55464875      -0.04257412      -0.00723553       0.04304487       0.05538251       0.02738449       0.00603431
C        0.26901592       2.16077688       1.28951819       0.00456833      -0.02718163      -0.04494192      -0.00714024      -0.00196873      -0.00357567
H       -0.81996952       2.10784503       1.21216177       0.02458270       0.01314647       0.01313540      -0.00923383       0.02178045      -0.00586358
H        0.56491862       1.77480025       2.26766117      -0.01577993       0.00864184      -0.05203502      -0.01705116      -0.01267748      -0.00458777
H        0.56104744       3.21343296       1.24102228      -0.04162619      -0.03347508       0.04658082       0.01364952      -0.00664570       0.00401569
C        0.68265957       2.02350449      -1.21061435      -0.00959971       0.02205360      -0.01083842      -0.00569839       0.00692742      -0.00199439
H        1.35963681       1.60799426      -1.95615720       0.02135452      -0.00997414       0.01891274      -0.01893627      -0.00635274      -0.00700239
H       -0.35130367       1.87812574      -1.52733453      -0.03119086       0.03956496      -0.01167499      -0.01249522       0.03927580      -0.00154472
H        0.88113008       3.09703887      -1.14930272       0.04768677       0.04043580      -0.02917729       0.02461049       0.00244437       0.00533973
18
Properties=species:S:1:pos:R:3:mp2_forces:R:3:forces:R:3 R1=NH2 R2=CN R3=CH3 R4=CH3 lg=Cl nu=Cl rxn-id=2653 mp2_energy=-33310.92382286445 energy=-33311.07872697096 free_energy=-33310.92382286445 pbc="F F F"
C        0.62331927      -0.08576701       0.18174555       0.00443131      -0.04659405       0.06454128      -0.30003753      -0.02198126      -0.08702725
C        0.97870501       1.40902671       0.17379483       0.02238776      -0.01867533      -0.00423926      -0.07989370      -0.02331153      -0.01195826
H        2.06656781       1.45123252       0.32969822       0.03609961       0.05798956       0.01878741      -0.07831344      -0.12700834       0.00543329
Cl      -1.32017856      -0.19219408      -0.19726500       0.02327370      -0.01447061       0.01217823       0.51660463      -0.16294270       0.04314880
Cl       3.83812845       0.64276494      -2.14250344       0.02853385       0.04510070      -0.05969970       0.00634085      -0.04138237       0.01928375
N        1.34559980      -0.80625185      -0.73932850      -0.01704369      -0.03079900       0.02125035      -0.15075621      -0.02545040      -0.12568647
H        2.11718184      -0.32235419      -1.21915139      -0.03153733      -0.02596407      -0.01915552      -0.00449061      -0.00321561       0.10646627
H        1.55298505      -1.76178709      -0.49453591       0.00641693       0.01646374       0.00244876      -0.00473320       0.03317137       0.02493482
C        0.62295271      -0.70597516       1.51111218      -0.02998366      -0.02902721      -0.00911776       0.01613939       0.02895919      -0.00071224
N        0.62528297      -1.27850951       2.53808510      -0.04257412      -0.00723553       0.04304487       0.08339665       0.06067462       0.01283298
C        0.28830382       2.16635940       1.29936095       0.00456833      -0.02718163      -0.04494192      -0.01693053       0.01184773       0.00182390
H       -0.79454221       2.04762844       1.22544543       0.02458270       0.01314647       0.01313540      -0.02965478       0.07885890       0.03961056
H        0.60906344       1.80942470       2.28080126      -0.01577993       0.00864184      -0.05203502      -0.01028545      -0.00995766      -0.00723811
H        0.52302882       3.23184458       1.23099442      -0.04162619      -0.03347508       0.04658082       0.02790144       0.00352476       0.01077088
C        0.69936404       2.00367482      -1.20447311      -0.00959971       0.02205360      -0.01083842      -0.00627791       0.03908054      -0.00278900
H        1.41274254       1.62489840      -1.93626733       0.02135452      -0.00997414       0.01891274      -0.00864379       0.01405736       0.00821265
H       -0.31571593       1.76767765      -1.52141560      -0.03119086       0.03956496      -0.01167499      -0.00860854       0.11201295      -0.05731155
H        0.81323914       3.08960995      -1.16436146       0.04768677       0.04043580      -0.02917729       0.04824273       0.03306245       0.02020498
18
Properties=species:S:1:pos:R:3:mp2_forces:R:3:forces:R:3 R1=NH2 R2=CN R3=CH3 R4=CH3 lg=Cl nu=Cl rxn-id=2653 mp2_energy=-33310.92382286445 energy=-33310.8167173291 free_energy=-33310.92382286445 pbc="F F F"
C        0.76344473      -0.07558082       0.22242008       0.00443131      -0.04659405       0.06454128      -0.13345174      -0.00272962      -0.04763032
C        1.01604224       1.41989776       0.17944097       0.02238776      -0.01867533      -0.00423926      -0.05247642      -0.00445053      -0.01006200
H        2.10318100       1.51066205       0.32723987       0.03609961       0.05798956       0.01878741      -0.04645624      -0.05962944       0.00421773
Cl      -1.56076752      -0.11679981      -0.21750941       0.02327370      -0.01447061       0.01217823       0.36273809      -0.20160985       0.06831394
Cl       3.83473823       0.66217485      -2.15239552       0.02853385       0.04510070      -0.05969970      -0.02341122      -0.06217055      -0.02626874
N        1.41635953      -0.79436750      -0.68032755      -0.01704369      -0.03079900       0.02125035      -0.04365346       0.00364713      -0.01564753
H        2.11944171      -0.32089894      -1.26899882      -0.03153733      -0.02596407      -0.01915552      -0.00218361       0.01176123       0.03166294
H        1.55524020      -1.77745194      -0.50626754       0.00641693       0.01646374       0.00244876      -0.01456187       0.01175821       0.01029076
C        0.61526849      -0.71948494       1.51161314      -0.02998366      -0.02902721      -0.00911776      -0.06329200       0.01122056      -0.01777274
N        0.58563056      -1.30665701       2.53232605      -0.04257412      -0.00723553       0.04304487      -0.01059102       0.02272128      -0.00718193
C        0.29618100       2.16085164       1.29849493       0.00456833      -0.02718163      -0.04494192      -0.00814622       0.01646298       0.00400192
H       -0.78074110       2.01109901       1.20667521       0.02458270       0.01314647       0.01313540      -0.01652102       0.05445826       0.03252756
H        0.61352574       1.81396265       2.28421636      -0.01577993       0.00864184      -0.05203502       0.00005796      -0.00216607      -0.00483876
H        0.51026340       3.23016882       1.22606986      -0.04162619      -0.03347508       0.04658082       0.02294266       0.01141648       0.00912486
C        0.70232489       1.98549022      -1.20306940      -0.00959971       0.02205360      -0.01083842      -0.00156813       0.04176256      -0.00486812
H        1.41669117       1.61837529      -1.94009994       0.02135452      -0.00997414       0.01891274      -0.00241074       0.02525116       0.00224951
H       -0.31174219       1.71564807      -1.49448864      -0.03119086       0.03956496      -0.01167499      -0.00295104       0.08304585      -0.04112261
H        0.79094592       3.07421380      -1.17360345       0.04768677       0.04043580      -0.02917729       0.03593603       0.03925036       0.01300353
18
Properties=species:S:1:pos:R:3:mp2_forces:R:3:forces:R:3 R1=NH2 R2=CN R3=CH3 R4=CH3 lg=Cl nu=Cl rxn-id=2653 mp2_energy=-33310.92382286445 energy=-33310.74961621288 free_energy=-33310.92382286445 pbc="F F F"
C        1.00782500      -0.07028356       0.30942995       0.00443131      -0.04659405       0.06454128       0.00378937       0.00291614      -0.00496482
C        1.11014679       1.42836938       0.19750610       0.02238776      -0.01867533      -0.00423926      -0.00304189       0.00495125       0.00183515
H        2.18651253       1.61886301       0.31977962       0.03609961       0.05798956       0.01878741      -0.00352912       0.00909052       0.00245875
Cl      -2.20914538       0.23213332      -0.33894539       0.02327370      -0.01447061       0.01217823      -0.00790536       0.00583684       0.00790676
Cl       3.87388664       0.77178348      -2.11033401       0.02853385       0.04510070      -0.05969970      -0.04696842      -0.09069949      -0.07716039
N        1.49835920      -0.80033173      -0.64912948      -0.01704369      -0.03079900       0.02125035       0.05312780       0.01317040       0.00935846
H        2.12396208      -0.34188557      -1.32735767      -0.03153733      -0.02596407      -0.01915552       0.09527681       0.02191962       0.04130506
H        1.58011110      -1.79942149      -0.52536578       0.00641693       0.01646374       0.00244876       0.05444744       0.01288943       0.00869384
C        0.72500621      -0.73963159       1.54292979      -0.02998366      -0.02902721      -0.00911776      -0.03429108      -0.00317512      -0.01467231
N        0.59842830      -1.34657238       2.54536142      -0.04257412      -0.00723553       0.04304487      -0.05563313      -0.01070174      -0.02102857
C        0.31078961       2.13206253       1.29148339       0.00456833      -0.02718163      -0.04494192      -0.00206535      -0.00045727       0.00588150
H       -0.75141850       1.91600008       1.14819703       0.02458270       0.01314647       0.01313540      -0.00196345      -0.00256660       0.00830516
H        0.61254155       1.81771532       2.29301500      -0.01577993       0.00864184      -0.05203502       0.00138851      -0.00188381       0.00435443
H        0.47129639       3.21008929       1.21027760      -0.04162619      -0.03347508       0.04658082      -0.00537897       0.00023174       0.00784847
C        0.70525721       1.91224218      -1.19414354      -0.00959971       0.02205360      -0.01083842      -0.00919985       0.00985289       0.00472519
H        1.42060894       1.57457565      -1.94441237       0.02135452      -0.00997414       0.01891274      -0.01787493       0.00786742      -0.00297255
H       -0.30683076       1.57016335      -1.42095123      -0.03119086       0.03956496      -0.01167499      -0.01075712       0.01067442       0.01096971
H        0.72869110       3.00543194      -1.19560423       0.04768677       0.04043580      -0.02917729      -0.00942126       0.01008337       0.00715614
18
Properties=species:S:1:pos:R:3:mp2_forces:R:3:forces:R:3 R1=NH2 R2=CN R3=CH3 R4=CH3 lg=Cl nu=Cl rxn-id=2653 mp2_energy=-33310.92382286445 energy=-33310.62184139199 free_energy=-33310.92382286445 pbc="F F F"
C        0.99654747      -0.07919614       0.32300581       0.00443131      -0.04659405       0.06454128      -0.00378502       0.00229478      -0.00527735
C        1.11884383       1.41374602       0.19212072       0.02238776      -0.01867533      -0.00423926      -0.00573748       0.00368567       0.00214604
H        2.19677826       1.59196765       0.31189139       0.03609961       0.05798956       0.01878741      -0.00561174       0.00377570       0.00266174
Cl      -2.18607462       0.21410557      -0.35957146       0.02327370      -0.01447061       0.01217823      -0.00776406       0.00483661       0.01086583
Cl       4.00275049       1.03037586      -1.89424978       0.02853385       0.04510070      -0.05969970      -0.04900636      -0.09527164      -0.07048004
N        1.35085234      -0.83722937      -0.67599944      -0.01704369      -0.03079900       0.02125035       0.04042061       0.01271297      -0.00075638
H        1.86171792      -0.40196176      -1.44064262      -0.03153733      -0.02596407      -0.01915552       0.11178147       0.02491632       0.03892884
H        1.42788976      -1.83577494      -0.55159991       0.00641693       0.01646374       0.00244876       0.05625718       0.01343729       0.00026728
C        0.81783414      -0.73090572       1.58364381      -0.02998366      -0.02902721      -0.00911776      -0.03292569      -0.00239057      -0.01094421
N        0.74878615      -1.31469751       2.60496819      -0.04257412      -0.00723553       0.04304487      -0.04960210      -0.00662592      -0.01409109
C        0.31807705       2.13344416       1.27507917       0.00456833      -0.02718163      -0.04494192      -0.00197169       0.00067609       0.00635422
H       -0.74472335       1.92445720       1.12555256       0.02458270       0.01314647       0.01313540      -0.00256983       0.00118792       0.00934631
H        0.61026044       1.82294296       2.28080575      -0.01577993       0.00864184      -0.05203502       0.00140584      -0.00101766       0.00479727
H        0.48908165       3.20934197       1.18804772      -0.04162619      -0.03347508       0.04658082      -0.00256815       0.00081945       0.00742475
C        0.73044093       1.88373884      -1.20750614      -0.00959971       0.02205360      -0.01083842      -0.01037325       0.00917388       0.00447820
H        1.46990017       1.55186235      -1.93647585       0.02135452      -0.00997414       0.01891274      -0.01456185       0.01124195      -0.00098194
H       -0.27716295       1.53881755      -1.45138159      -0.03119086       0.03956496      -0.01167499      -0.00997354       0.00712244       0.00712846
H        0.75422835       2.97626851      -1.21595212       0.04768677       0.04043580      -0.02917729      -0.01341433       0.00942473       0.00813206
18
Properties=species:S:1:pos:R:3:mp2_forces:R:3:forces:R:3 R1=NH2 R2=CN R3=CH3 R4=CH3 lg=Cl nu=Cl rxn-id=2653 mp2_energy=-33310.92382286445 energy=-33310.54298815448 free_energy=-33310.92382286445 pbc="F F F"
C        1.00584107      -0.08596179       0.33776506       0.00443131      -0.04659405       0.06454128      -0.00513904       0.00063397      -0.00142481
C        1.13542586       1.40304642       0.18625197       0.02238776      -0.01867533      -0.00423926      -0.00311445       0.00076422       0.00089066
H        2.21340133       1.57994040       0.30282436       0.03609961       0.05798956       0.01878741      -0.00239615      -0.00170670      -0.00117099
Cl      -2.15750174       0.19062502      -0.38419933       0.02327370      -0.01447061       0.01217823      -0.00286900       0.00227226       0.01129994
Cl       4.13441337       1.30411430      -1.71483606       0.02853385       0.04510070      -0.05969970      -0.01680296      -0.02933389      -0.03351879
N        1.24548737      -0.87239350      -0.67151292      -0.01704369      -0.03079900       0.02125035       0.01365213       0.00407203      -0.00047866
H        1.56466608      -0.47030262      -1.54288642      -0.03153733      -0.02596407      -0.01915552       0.05502699       0.00803257       0.01053427
H        1.27527986      -1.87338124      -0.55122456       0.00641693       0.01646374       0.00244876       0.03283402       0.00321627      -0.00058412
C        0.89484669      -0.72492822       1.61207790      -0.02998366      -0.02902721      -0.00911776      -0.02136980      -0.00156828      -0.00363601
N        0.86292066      -1.29652138       2.64180037      -0.04257412      -0.00723553       0.04304487      -0.03237933      -0.00364174      -0.00492304
C        0.32711164       2.13262410       1.25854742       0.00456833      -0.02718163      -0.04494192       0.00124100       0.00152800       0.00336378
H       -0.73458028       1.92374127       1.10276358       0.02458270       0.01314647       0.01313540       0.00037547       0.00347989       0.00607578
H        0.61106477       1.82687490       2.26825942      -0.01577993       0.00864184      -0.05203502       0.00330647       0.00075690       0.00252856
H        0.50131167       3.20780862       1.16769640      -0.04162619      -0.03347508       0.04658082       0.00267579       0.00121936       0.00311432
C        0.75815808       1.85787884      -1.21949862      -0.00959971       0.02205360      -0.01083842      -0.00577464       0.00255459       0.00185402
H        1.50790288       1.51979646      -1.93444870       0.02135452      -0.00997414       0.01891274      -0.00700367       0.00344186       0.00011945
H       -0.25086497       1.51864404      -1.46912275      -0.03119086       0.03956496      -0.01167499      -0.00566952       0.00164248       0.00316909
H        0.79114368       2.94969760      -1.23852091       0.04768677       0.04043580      -0.02917729      -0.00659328       0.00263620       0.00278656
18
Properties=species:S:1:pos:R:3:mp2_forces:R:3:forces:R:3 R1=NH2 R2=CN R3=CH3 R4=CH3 lg=Cl nu=Cl rxn-id=2653 mp2_energy=-33310.92382286445 energy=-33310.51789282373 free_energy=-33310.92382286445 pbc="F F F"
C        1.02947923      -0.09223418       0.34682241       0.00443131      -0.04659405       0.06454128      -0.00246353      -0.00054538      -0.00019067
C        1.15574553       1.39532795       0.18077499       0.02238776      -0.01867533      -0.00423926       0.00017386      -0.00077496      -0.00024778
H        2.23091480       1.58190378       0.30430665       0.03609961       0.05798956       0.01878741       0.00069637      -0.00253182      -0.00193488
Cl      -2.12047047       0.15067141      -0.43205823       0.02327370      -0.01447061       0.01217823       0.00593263      -0.00717683       0.00777206
Cl       4.22758677       1.52357635      -1.55704720       0.02853385       0.04510070      -0.05969970      -0.00254911       0.00920533      -0.00901407
N        1.17886756      -0.89872528      -0.66337948      -0.01704369      -0.03079900       0.02125035       0.00446379      -0.00038078       0.00056026
H        1.27403780      -0.51939675      -1.59430738      -0.03153733      -0.02596407      -0.01915552       0.01257574       0.00008194       0.00094453
H        1.08285599      -1.89601193      -0.54661746       0.00641693       0.01646374       0.00244876       0.00195456      -0.00044206      -0.00106198
C        0.97961810      -0.71822059       1.63099643      -0.02998366      -0.02902721      -0.00911776      -0.01215048      -0.00072320      -0.00059892
N        0.98955613      -1.27680007       2.66810772      -0.04257412      -0.00723553       0.04304487      -0.01835398      -0.00074627      -0.00049094
C        0.33113414       2.12655442       1.24108725       0.00456833      -0.02718163      -0.04494192       0.00315126       0.00103629       0.00072570
H       -0.72734963       1.91185386       1.07522418       0.02458270       0.01314647       0.01313540       0.00252462       0.00273005       0.00260183
H        0.60575390       1.82546021       2.25490812      -0.01577993       0.00864184      -0.05203502       0.00413703       0.00098887       0.00043808
H        0.50271233       3.20234587       1.14896193      -0.04162619      -0.03347508       0.04658082       0.00487768       0.00068357       0.00000363
C        0.79036859       1.84031218      -1.22981727      -0.00959971       0.02205360      -0.01083842      -0.00111308      -0.00032968       0.00010739
H        1.54405919       1.49592710      -1.93736291       0.02135452      -0.00997414       0.01891274      -0.00209361      -0.00048299      -0.00080720
H       -0.22023840       1.50724048      -1.48353131      -0.03119086       0.03956496      -0.01167499      -0.00137398      -0.00022707       0.00119857
H        0.83139645       2.93151841      -1.25533222       0.04768677       0.04043580      -0.02917729      -0.00038978      -0.00036502      -0.00000560
18
Properties=species:S:1:pos:R:3:mp2_forces:R:3:forces:R:3 R1=NH2 R2=CN R3=CH3 R4=CH3 lg=Cl nu=Cl rxn-id=2653 mp2_energy=-33310.92382286445 energy=-33310.51681935125 free_energy=-33310.92382286445 pbc="F F F"
C        1.05333403      -0.09954878       0.35216754       0.00443131      -0.04659405       0.06454128      -0.00113676      -0.00155075      -0.00022396
C        1.17127811       1.38792353       0.17821038       0.02238776      -0.01867533      -0.00423926       0.00162455      -0.00188942      -0.00100230
H        2.24171559       1.58954110       0.31633632       0.03609961       0.05798956       0.01878741       0.00189614      -0.00280113      -0.00175926
Cl      -2.13350288       0.15641907      -0.50784396       0.02327370      -0.01447061       0.01217823       0.00441785      -0.00658941       0.00454371
Cl       4.28785716       1.67176771      -1.44792610       0.02853385       0.04510070      -0.05969970       0.00199557       0.02626050       0.00340397
N        1.10757258      -0.91948670      -0.65873576      -0.01704369      -0.03079900       0.02125035      -0.00299098      -0.00253972       0.00040320
H        1.04546007      -0.55217804      -1.59739376      -0.03153733      -0.02596407      -0.01915552      -0.00581820      -0.00304362       0.00030110
H        0.94261016      -1.90521675      -0.51921247       0.00641693       0.01646374       0.00244876      -0.00964290      -0.00133065       0.00141527
C        1.07808931      -0.71497777       1.64170685      -0.02998366      -0.02902721      -0.00911776      -0.00483963      -0.00089462       0.00010348
N        1.13439871      -1.26581341       2.68135088      -0.04257412      -0.00723553       0.04304487      -0.00755690      -0.00052377       0.00045784
C        0.32502414       2.11456652       1.22616161       0.00456833      -0.02718163      -0.04494192       0.00344814       0.00010753      -0.00090204
H       -0.72925697       1.89174058       1.04634520       0.02458270       0.01314647       0.01313540       0.00297988       0.00161669       0.00018374
H        0.58912068       1.81681811       2.24384558      -0.01577993       0.00864184      -0.05203502       0.00371691       0.00033106      -0.00090981
H        0.49009306       3.19173737       1.13515402      -0.04162619      -0.03347508       0.04658082       0.00519057      -0.00022726      -0.00171184
C        0.82156014       1.82789558      -1.23701582      -0.00959971       0.02205360      -0.01083842       0.00154582      -0.00177223      -0.00098094
H        1.57952935       1.47757387      -1.93757945       0.02135452      -0.00997414       0.01891274       0.00043658      -0.00292410      -0.00157910