13
Properties=species:S:1:pos:R:3:mp2_forces:R:3:forces:R:3 R1=H R2=CN R3=NH2 R4=CN lg=Cl nu=Cl rxn-id=468 mp2_energy=-33682.932400907855 energy=-33682.93240061125 free_energy=-33682.93240061125 pbc="F F F"
C        0.64382528      -0.08744423       0.10453160       0.00520460      -0.03252515      -0.00400930       0.00521890      -0.03255092      -0.00400391
C        0.89378197       1.45369014       0.04338904      -0.00725948      -0.02040344      -0.02170267      -0.00727393      -0.02040278      -0.02166960
H        1.86689605       1.55226001      -0.45285501      -0.00857375       0.01518156       0.00988921      -0.00856681       0.01518276       0.00987694
Cl      -0.76087275      -0.64019841      -0.88256755      -0.01838124      -0.02074209      -0.01343227      -0.01837520      -0.02073370      -0.01342609
Cl       3.63775456       0.32374083       0.95201537       0.08701918       0.01810403      -0.01504757       0.08701792       0.01810418      -0.01505014
H        1.51957889      -0.58261708      -0.30772395       0.03195811      -0.00565222       0.01077203       0.03194920      -0.00564780       0.01078184
C        0.45960556      -0.58229109       1.46473358      -0.01742798       0.05696743      -0.01976271      -0.01743316       0.05697747      -0.01975131
N        0.29419669      -1.05154482       2.52745480      -0.07993174      -0.02132992       0.02303243      -0.07992710      -0.02133035       0.02299849
N        0.90694208       2.02311528       1.39072156       0.03612979      -0.00991457      -0.04912941       0.03619655      -0.00988951      -0.04912490
H        1.00039856       3.02944955       1.29573880       0.01189010       0.01502660       0.02967700       0.01187968       0.01498009       0.02968269
H        1.78293108       1.68332575       1.79353014      -0.00993020       0.00310180       0.00933435      -0.00998694       0.00312189       0.00931929
C       -0.09943536       2.16355485      -0.76875925      -0.01477293       0.02062474       0.01792834      -0.01476764       0.02063490       0.01792444
N       -0.81852089       2.82079800      -1.42462535      -0.01592448      -0.01843878       0.02245056      -0.01593147      -0.01844623       0.02244225
13
Properties=species:S:1:pos:R:3:mp2_forces:R:3:forces:R:3 R1=H R2=CN R3=NH2 R4=CN lg=Cl nu=Cl rxn-id=468 mp2_energy=-33682.932400907855 energy=-33682.945293354314 free_energy=-33682.93240061125 pbc="F F F"
C        0.64282903      -0.09868569       0.12322993       0.00520460      -0.03252515      -0.00400930       0.00308503      -0.00105442       0.00467307
C        0.89457487       1.43883115       0.04333281      -0.00725948      -0.02040344      -0.02170267      -0.00131887      -0.00121977       0.00022549
H        1.85419278       1.53447470      -0.47676620      -0.00857375       0.01518156       0.00988921      -0.00919377       0.00054978      -0.01367515
Cl      -0.69204907      -0.67151706      -0.94430091      -0.01838124      -0.02074209      -0.01343227       0.03689835      -0.01211995      -0.02778091
Cl       3.75420829       0.42517673       0.85532774       0.08701918       0.01810403      -0.01504757       0.01269821       0.00640796      -0.01564908
H        1.55091304      -0.59286641      -0.21937743       0.03195811      -0.00565222       0.01077203       0.01524334       0.00365298       0.03217693
C        0.36177546      -0.56970662       1.47606818      -0.01742798       0.05696743      -0.01976271      -0.02853238       0.00531631      -0.00059820
N        0.12825247      -1.04380705       2.52420421      -0.07993174      -0.02132992       0.02303243      -0.04648752       0.00936872      -0.00313297
N        0.94535672       2.00726112       1.38857609       0.03612979      -0.00991457      -0.04912941       0.01714053      -0.00217333      -0.00053225
H        1.02060682       3.01571033       1.30082829       0.01189010       0.01502660       0.02967700       0.01233108      -0.00183925      -0.00055670
H        1.83342886       1.67596199       1.76952737      -0.00993020       0.00310180       0.00933435       0.02342351      -0.00015191      -0.01380896
C       -0.11768579       2.15818060      -0.73762986      -0.01477293       0.02062474       0.01792834      -0.01324211      -0.00272214       0.01467430
N       -0.84932175       2.82682499      -1.36743643      -0.01592448      -0.01843878       0.02245056      -0.02204540      -0.00401499       0.02398443
13
Properties=species:S:1:pos:R:3:mp2_forces:R:3:forces:R:3 R1=H R2=CN R3=NH2 R4=CN lg=Cl nu=Cl rxn-id=468 mp2_energy=-33682.932400907855 energy=-33682.97128007153 free_energy=-33682.93240061125 pbc="F F F"
C        0.65066667      -0.10006292       0.13341140       0.00520460      -0.03252515      -0.00400930       0.00459734      -0.00006680       0.00612145
C        0.89103571       1.43727185       0.04266000      -0.00725948      -0.02040344      -0.02170267      -0.00152986      -0.00127276       0.00057008
H        1.83229873       1.53805136      -0.50984584      -0.00857375       0.01518156       0.00988921      -0.01340538       0.00036749      -0.01705004
Cl      -0.60743804      -0.69963403      -1.00687859      -0.01838124      -0.02074209      -0.01343227       0.04999986      -0.01212910      -0.03029394
Cl       3.78026571       0.43655029       0.82382377       0.08701918       0.01810403      -0.01504757       0.01861654       0.00389162      -0.01769275
H        1.58680095      -0.58309608      -0.14629724       0.03195811      -0.00565222       0.01077203       0.01665942       0.00728503       0.04041560
C        0.29872294      -0.55613067       1.47465019      -0.01742798       0.05696743      -0.01976271      -0.03508170       0.00726509      -0.00414351
N        0.02568197      -1.02148924       2.51722836      -0.07993174      -0.02132992       0.02303243      -0.06083924       0.01333747      -0.00953080
N        0.98335072       2.00267696       1.38650677       0.03612979      -0.00991457      -0.04912941       0.02197319      -0.00178284      -0.00215936
H        1.05437040       3.01148074       1.29943005       0.01189010       0.01502660       0.02967700       0.01583326      -0.00143724      -0.00236141
H        1.88283779       1.67060188       1.73942935      -0.00993020       0.00310180       0.00933435       0.02863110       0.00075654      -0.01796344
C       -0.14944839       2.15234948      -0.70492026      -0.01477293       0.02062474       0.01792834      -0.01648332      -0.00557859       0.02044362
N       -0.90206343       2.81726914      -1.31361420      -0.01592448      -0.01843878       0.02245056      -0.02897121      -0.01063591       0.03364451
13
Properties=species:S:1:pos:R:3:mp2_forces:R:3:forces:R:3 R1=H R2=CN R3=NH2 R4=CN lg=Cl nu=Cl rxn-id=468 mp2_energy=-33682.932400907855 energy=-33683.06212526081 free_energy=-33682.93240061125 pbc="F F F"
C        0.69338513      -0.08587300       0.14656851       0.00520460      -0.03252515      -0.00400930      -0.00027704       0.00059256       0.01217188
C        0.88293898       1.44852367       0.02543953      -0.00725948      -0.02040344      -0.02170267      -0.00724896      -0.00292659       0.00349606
H        1.74746391       1.57379217      -0.63962038      -0.00857375       0.01518156       0.00988921      -0.02209105      -0.00471537      -0.01577158
Cl      -0.35347908      -0.75285230      -1.15149282      -0.01838124      -0.02074209      -0.01343227       0.07313170      -0.01721451      -0.03774542
Cl       3.80849275       0.33010121       0.90279715       0.08701918       0.01810403      -0.01504757       0.04866102       0.02913284      -0.05198420
H        1.68574686      -0.52526160       0.02310978       0.03195811      -0.00565222       0.01077203       0.01603265       0.01413683       0.06684981
C        0.16933779      -0.51069957       1.43897744      -0.01742798       0.05696743      -0.01976271      -0.05670610       0.01224276      -0.00553750
N       -0.22201983      -0.95287839       2.45352997      -0.07993174      -0.02132992       0.02303243      -0.08461947       0.02219633      -0.01163846
N        1.10375557       2.01530771       1.35090022       0.03612979      -0.00991457      -0.04912941       0.02199099      -0.00860168       0.00043419
H        1.16626740       3.02402279       1.25771028       0.01189010       0.01502660       0.02967700       0.03156722      -0.00879305       0.00310019
H        2.02604270       1.67285021       1.63065522      -0.00993020       0.00310180       0.00933435       0.02513843      -0.01809582      -0.01978507
C       -0.26331984       2.12334799      -0.59567861      -0.01477293       0.02062474       0.01792834      -0.01927650      -0.00659386       0.02476695
N       -1.11753060       2.74545790      -1.10731251      -0.01592448      -0.01843878       0.02245056      -0.02630289      -0.01136044       0.03164317
13
Properties=species:S:1:pos:R:3:mp2_forces:R:3:forces:R:3 R1=H R2=CN R3=NH2 R4=CN lg=Cl nu=Cl rxn-id=468 mp2_energy=-33682.932400907855 energy=-33682.990873202594 free_energy=-33682.93240061125 pbc="F F F"
C        0.70347801      -0.07992051       0.11761649       0.00520460      -0.03252515      -0.00400930      -0.01494335      -0.00007485       0.01299265
C        0.89335590       1.46094171       0.01111368      -0.00725948      -0.02040344      -0.02170267      -0.01920620      -0.00449332       0.00130708
H        1.76751350       1.59549546      -0.63932629      -0.00857375       0.01518156       0.00988921      -0.02809197      -0.01154916      -0.01323376
Cl      -0.46693336      -0.72092590      -1.09252975      -0.01838124      -0.02074209      -0.01343227       0.06636614      -0.02205391      -0.05125949
Cl       3.70812968       0.21541815       1.07626593       0.08701918       0.01810403      -0.01504757       0.08244753       0.06255004      -0.06551564
H        1.66800026      -0.53872917      -0.10012134       0.03195811      -0.00565222       0.01077203       0.01564194       0.01624625       0.08292656
C        0.27956753      -0.52770790       1.43874685      -0.01742798       0.05696743      -0.01976271      -0.06991302       0.01532157       0.00319227
N       -0.06791780      -0.99015095       2.46004371      -0.07993174      -0.02132992       0.02303243      -0.06441065       0.02260633       0.00834696
N        1.08044273       2.04268857       1.33566982       0.03612979      -0.00991457      -0.04912941       0.01151809      -0.02246548       0.00427238
H        1.12098612       3.05172657       1.23429616       0.01189010       0.01502660       0.02967700       0.04150475      -0.02182168       0.01626438
H        1.99831367       1.71530891       1.64518326      -0.00993020       0.00310180       0.00933435       0.01149288      -0.05047922      -0.01836266
C       -0.24880289       2.13065655      -0.62401831      -0.01477293       0.02062474       0.01792834      -0.02076479       0.00475333       0.01354360
N       -1.10905163       2.75103728      -1.12735642      -0.01592448      -0.01843878       0.02245056      -0.01164135       0.01146012       0.00552567
13
Properties=species:S:1:pos:R:3:mp2_forces:R:3:forces:R:3 R1=H R2=CN R3=NH2 R4=CN lg=Cl nu=Cl rxn-id=468 mp2_energy=-33682.932400907855 energy=-33682.90239721189 free_energy=-33682.93240061125 pbc="F F F"
C        0.72157464      -0.08287203       0.09976309       0.00520460      -0.03252515      -0.00400930      -0.07582445       0.00438893      -0.00334201
C        0.92296486       1.46488836       0.01417996      -0.00725948      -0.02040344      -0.02170267      -0.05322690      -0.00562031      -0.01640839
H        1.81829513       1.60678419      -0.60366902      -0.00857375       0.01518156       0.00988921      -0.03886918      -0.05145736      -0.00669992
Cl      -0.58456240      -0.68537001      -1.00344816      -0.01838124      -0.02074209      -0.01343227       0.05691334      -0.00208424      -0.04923240
Cl       3.57838791       0.13913401       1.15050358       0.08701918       0.01810403      -0.01504757       0.19443987       0.07904124      -0.03691989
H        1.63534194      -0.56844077      -0.23516209       0.03195811      -0.00565222       0.01077203       0.02186487       0.04795990       0.13556928
C        0.39231945      -0.55726812       1.43806796      -0.01742798       0.05696743      -0.01976271      -0.08682813       0.03292247       0.00691558
N        0.04396434      -1.03108653       2.45381736      -0.07993174      -0.02132992       0.02303243       0.00481331       0.01680320       0.03304183
N        1.05340642       2.07414668       1.33581013       0.03612979      -0.00991457      -0.04912941      -0.01478602      -0.05792648      -0.00022111
H        1.04459810       3.08234074       1.21623948       0.01189010       0.01502660       0.02967700       0.03479664      -0.05250969       0.03519920
H        1.97289589       1.79476300       1.68017279      -0.00993020       0.00310180       0.00933435      -0.01092572      -0.11655173      -0.04049420
C       -0.20538348       2.12574782      -0.65299653      -0.01477293       0.02062474       0.01792834      -0.02409756       0.05255193      -0.02044827
N       -1.06672108       2.74307146      -1.15769476      -0.01592448      -0.01843878       0.02245056      -0.00827008       0.05248214      -0.03695969
13
Properties=species:S:1:pos:R:3:mp2_forces:R:3:forces:R:3 R1=H R2=CN R3=NH2 R4=CN lg=Cl nu=Cl rxn-id=468 mp2_energy=-33682.932400907855 energy=-33682.63825260258 free_energy=-33682.93240061125 pbc="F F F"
C        0.79874542      -0.08826104       0.10502353       0.00520460      -0.03252515      -0.00400930      -0.80007730      -0.15254926      -0.42072299
C        0.98060831       1.46963845       0.03461566      -0.00725948      -0.02040344      -0.02170267      -0.19024924      -0.05097571      -0.09157086
H        1.86659631       1.65797254      -0.58462054      -0.00857375       0.01518156       0.00988921      -0.04397706      -0.24129382       0.05488951
Cl      -0.66311594      -0.67967490      -0.93638528      -0.01838124      -0.02074209      -0.01343227       0.36288916       0.26452159       0.25941690
Cl       3.37178950       0.06313107       1.17372901       0.08701918       0.01810403      -0.01504757       0.63964243       0.05478498       0.15557483
H        1.60221881      -0.62269233      -0.38899657       0.03195811      -0.00565222       0.01077203       0.15927613       0.21080804       0.37291261
C        0.49341505      -0.59617920       1.43414415      -0.01742798       0.05696743      -0.01976271      -0.04763712       0.05068309      -0.02858030
N        0.05609806      -1.05760353       2.42265039      -0.07993174      -0.02132992       0.02303243       0.11996852       0.01840451       0.01872220
N        1.05931224       2.13439668       1.34017416       0.03612979      -0.00991457      -0.04912941      -0.07245539      -0.17055021      -0.01449110
H        0.99395160       3.13689742       1.18441169       0.01189010       0.01502660       0.02967700       0.00058592      -0.15374217       0.00813072
H        1.97443852       1.92143911       1.73060218      -0.00993020       0.00310180       0.00933435      -0.02124466      -0.22134093      -0.12217836
C       -0.17168834       2.07366167      -0.64213487      -0.01477293       0.02062474       0.01792834       0.01984552       0.28429865      -0.06886848
N       -1.03528782       2.69311284      -1.13762972      -0.01592448      -0.01843878       0.02245056      -0.12656690       0.10695122      -0.12323469
13
Properties=species:S:1:pos:R:3:mp2_forces:R:3:forces:R:3 R1=H R2=CN R3=NH2 R4=CN lg=Cl nu=Cl rxn-id=468 mp2_energy=-33682.932400907855 energy=-33682.214156131784 free_energy=-33682.93240061125 pbc="F F F"
C        0.91225553      -0.06648921       0.16511704       0.00520460      -0.03252515      -0.00400930      -1.56691457      -0.31857910      -0.88085603
C        1.00647166       1.47715309       0.04729373      -0.00725948      -0.02040344      -0.02170267      -0.15943268      -0.06927244      -0.07844788
H        1.87352019       1.69164797      -0.59105465      -0.00857375       0.01518156       0.00988921      -0.01929165      -0.21682700       0.07140457
Cl      -0.71718557      -0.71635807      -0.97104633      -0.01838124      -0.02074209      -0.01343227       0.66321340       0.41164064       0.52517520
Cl       3.28189127       0.05571396       1.15033462       0.08701918       0.01810403      -0.01504757       0.71598213       0.04754077       0.23070958
H        1.57823775      -0.65224175      -0.44258571       0.03195811      -0.00565222       0.01077203       0.34698715       0.14064675       0.34047450
C        0.50118198      -0.60397747       1.43878973      -0.01742798       0.05696743      -0.01976271       0.09329141       0.03134645       0.03617387
N        0.04189788      -1.06116278       2.42034511      -0.07993174      -0.02132992       0.02303243       0.07873345       0.00370375       0.01424099
N        1.06823710       2.15798502       1.34255048       0.03612979      -0.00991457      -0.04912941      -0.05841279      -0.14551021      -0.00226977
H        0.99187269       3.15810173       1.18401205       0.01189010       0.01502660       0.02967700      -0.00737521      -0.12106716      -0.01837051
H        1.97617629       1.95276307       1.74845532      -0.00993020       0.00310180       0.00933435      -0.00305814      -0.15435176      -0.08463471
C       -0.17077576       2.03227010      -0.63231778      -0.01477293       0.02062474       0.01792834       0.00536011       0.35127739      -0.06606405
N       -1.01669930       2.68043312      -1.12430983      -0.01592448      -0.01843878       0.02245056      -0.08908262       0.03945191      -0.08753576
13
Properties=species:S:1:pos:R:3:mp2_forces:R:3:forces:R:3 R1=H R2=CN R3=NH2 R4=CN lg=Cl nu=Cl rxn-id=468 mp2_energy=-33682.932400907855 energy=-33681.920897369855 free_energy=-33682.93240061125 pbc="F F F"
C        1.01739750      -0.04516317       0.22435017       0.00520460      -0.03252515      -0.00400930      -0.90459101      -0.14030352      -0.48027437
C        1.01733095       1.48167016       0.05272016      -0.00725948      -0.02040344      -0.02170267      -0.06507824      -0.01669151      -0.02706850
H        1.87518118       1.70614177      -0.59527303      -0.00857375       0.01518156       0.00988921       0.00021528      -0.09046468       0.03998220
Cl      -0.76277642      -0.74355777      -1.00510160      -0.01838124      -0.02074209      -0.01343227       0.29526141       0.18754108       0.25214834
Cl       3.23391628       0.05261440       1.13409312       0.08701918       0.01810403      -0.01504757       0.40276691       0.03054222       0.13215341
H        1.55433750      -0.66166180      -0.46579903       0.03195811      -0.00565222       0.01077203       0.22749445       0.01712860       0.12035583
C        0.49551313      -0.60624144       1.43635822      -0.01742798       0.05696743      -0.01976271       0.06708481       0.00651560       0.05547777
N        0.03776165      -1.06200602       2.41978800      -0.07993174      -0.02132992       0.02303243       0.03320064      -0.01311851       0.02499135
N        1.07157783       2.16754348       1.34290181       0.03612979      -0.00991457      -0.04912941      -0.02521551      -0.06165319       0.00103875
H        0.99139566       3.16600900       1.18560337       0.01189010       0.01502660       0.02967700      -0.01236201      -0.04924460      -0.00549900
H        1.97578083       1.96321767       1.75448864      -0.00993020       0.00310180       0.00933435      -0.00129100      -0.06381692      -0.03123663
C       -0.17277176       2.01050691      -0.62982590      -0.01477293       0.02062474       0.01792834       0.02804250       0.16586862      -0.02308051
N       -1.00756261       2.67676558      -1.11872016      -0.01592448      -0.01843878       0.02245056      -0.04552822       0.02769679      -0.05898863
13
Properties=species:S:1:pos:R:3:mp2_forces:R:3:forces:R:3 R1=H R2=CN R3=NH2 R4=CN lg=Cl nu=Cl rxn-id=468 mp2_energy=-33682.932400907855 energy=-33681.86795564561 free_energy=-33682.93240061125 pbc="F F F"
C        1.13844678      -0.02639988       0.28867631       0.00520460      -0.03252515      -0.00400930       0.42324998       0.05979689       0.21660152
C        1.02607945       1.48385811       0.05649162      -0.00725948      -0.02040344      -0.02170267       0.03919365       0.00253607       0.01914582
H        1.87586787       1.71826264      -0.59951547      -0.00857375       0.01518156       0.00988921       0.00883550       0.04890322      -0.00655785
Cl      -0.80457475      -0.76784895      -1.03643527      -0.01838124      -0.02074209      -0.01343227      -0.16700858      -0.08896181      -0.10325707
Cl       3.18009273       0.04868874       1.11494137       0.08701918       0.01810403      -0.01504757      -0.20651693      -0.02555297      -0.08731128
H        1.52278917      -0.66397141      -0.48269941       0.03195811      -0.00565222       0.01077203      -0.13555485       0.01720003      -0.04798700
C        0.48753484      -0.60763272       1.42932231      -0.01742798       0.05696743      -0.01976271      -0.00033874       0.00009014      -0.01932570
N        0.03571270      -1.06129613       2.41695871      -0.07993174      -0.02132992       0.02303243       0.00754691      -0.00074115      -0.01806098
N        1.07377336       2.17539469       1.34311967       0.03612979      -0.00991457      -0.04912941       0.00078277       0.02844734       0.00441809
H        0.99109616       3.17217824       1.18704657       0.01189010       0.01502660       0.02967700      -0.01502421       0.02235641       0.00702617
H        1.97474062       1.97196994       1.75938593      -0.00993020       0.00310180       0.00933435      -0.01248433       0.04143560       0.02980661
C       -0.17548888       1.98869084      -0.62807183      -0.01477293       0.02062474       0.01792834       0.00083943      -0.09010823       0.00202926
N       -0.99898832       2.67394466      -1.11363673      -0.01592448      -0.01843878       0.02245056       0.05647940      -0.01540153       0.00347243
13
Properties=species:S:1:pos:R:3:mp2_forces:R:3:forces:R:3 R1=H R2=CN R3=NH2 R4=CN lg=Cl nu=Cl rxn-id=468 mp2_energy=-33682.932400907855 energy=-33682.07692046235 free_energy=-33682.93240061125 pbc="F F F"
C        1.25677151      -0.01110518       0.34730195       0.00520460      -0.03252515      -0.00400930       0.98341513       0.12652453       0.48537295
C        1.03936040       1.48329479       0.06300322      -0.00725948      -0.02040344      -0.02170267       0.11081644      -0.00497969       0.05499883
H        1.87712586       1.73356819      -0.60365449      -0.00857375       0.01518156       0.00988921       0.01589256       0.12830708      -0.02637710
Cl      -0.84751476      -0.79736754      -1.07415692      -0.01838124      -0.02074209      -0.01343227      -0.37462886      -0.23902294      -0.29424308
Cl       3.11665413       0.03759926       1.09059673       0.08701918       0.01810403      -0.01504757      -0.52581674      -0.09163852      -0.21234198
H        1.48195864      -0.65209113      -0.48988162       0.03195811      -0.00565222       0.01077203      -0.34628705       0.09915674      -0.06422319
C        0.49135789      -0.60392553       1.42387262      -0.01742798       0.05696743      -0.01976271       0.03842598       0.02687385      -0.04280756
N        0.03190525      -1.05809137       2.40742391      -0.07993174      -0.02132992       0.02303243      -0.01392697       0.01909104      -0.07561644
N        1.07704276       2.18544133       1.34391051       0.03612979      -0.00991457      -0.04912941       0.01830318       0.08019170       0.00918148
H        0.99120674       3.18053879       1.18662878       0.01189010       0.01502660       0.02967700      -0.01386439       0.06604566       0.00166092
H        1.97385981       1.98584828       1.76836626      -0.00993020       0.00310180       0.00933435      -0.01653502       0.11686868       0.08020613
C       -0.17651543       1.95776358      -0.62292340      -0.01477293       0.02062474       0.01792834      -0.00147893      -0.25379530       0.03239841
N       -0.98613107       2.66436529      -1.10490376      -0.01592448      -0.01843878       0.02245056       0.12568467      -0.07362283       0.05179063
13
Properties=species:S:1:pos:R:3:mp2_forces:R:3:forces:R:3 R1=H R2=CN R3=NH2 R4=CN lg=Cl nu=Cl rxn-id=468 mp2_energy=-33682.932400907855 energy=-33682.34863856892 free_energy=-33682.93240061125 pbc="F F F"
C        1.35342699       0.01151073       0.39887529       0.00520460      -0.03252515      -0.00400930       0.13900298       0.03276443       0.07263422
C        1.07841778       1.49033821       0.09423015      -0.00725948      -0.02040344      -0.02170267       0.05784449       0.01089011       0.04702141
H        1.88829576       1.77180952      -0.59658939      -0.00857375       0.01518156       0.00988921       0.02201797       0.05795901       0.01832329
Cl      -0.90761172      -0.89479781      -1.20650468      -0.01838124      -0.02074209      -0.01343227      -0.10546379      -0.13992624      -0.17935645
Cl       3.08281282      -0.01886839       1.04020526       0.08701918       0.01810403      -0.01504757      -0.04582130      -0.08433883      -0.08406636
H        1.37386898      -0.60610138      -0.49266398       0.03195811      -0.00565222       0.01077203      -0.16426784       0.06830642      -0.00698833
C        0.51342847      -0.57138484       1.43604674      -0.01742798       0.05696743      -0.01976271       0.03781844       0.04528002       0.02026921
N       -0.00626649      -1.03904558       2.38014592      -0.07993174      -0.02132992       0.02303243      -0.04035336       0.02141072      -0.03471312
N        1.10045290       2.22140679       1.35750205       0.03612979      -0.00991457      -0.04912941       0.02682489       0.04973216       0.02323969
H        0.99725288       3.21201596       1.18193289       0.01189010       0.01502660       0.02967700      -0.00548664       0.04283029      -0.00107410
H        1.99327914       2.05115748       1.80149648      -0.00993020       0.00310180       0.00933435       0.02119020       0.09839216       0.05367462
C       -0.16595987       1.88547780      -0.58768846      -0.01477293       0.02062474       0.01792834       0.02265826      -0.10244360       0.04244389
N       -0.97431593       2.59232028      -1.07140451      -0.01592448      -0.01843878       0.02245056       0.03403570      -0.10085665       0.02859203
13
Properties=species:S:1:pos:R:3:mp2_forces:R:3:forces:R:3 R1=H R2=CN R3=NH2 R4=CN lg=Cl nu=Cl rxn-id=468 mp2_energy=-33682.932400907855 energy=-33682.47140836207 free_energy=-33682.93240061125 pbc="F F F"
C        1.34133051       0.03063680       0.42547124       0.00520460      -0.03252515      -0.00400930      -0.00555187       0.00821867       0.00947145
C        1.10571148       1.51479437       0.13792787      -0.00725948      -0.02040344      -0.02170267       0.01415911       0.01150378       0.01992723
H        1.88874845       1.78971831      -0.58559536      -0.00857375       0.01518156       0.00988921       0.00648624       0.00964198       0.01051870
Cl      -0.79067504      -1.06820475      -1.48211740      -0.01838124      -0.02074209      -0.01343227       0.03846287      -0.07939770      -0.10822901
Cl       3.07484769      -0.11530826       0.95475021       0.08701918       0.01810403      -0.01504757      -0.00223107      -0.04452912      -0.04454857
H        1.21814770      -0.56764007      -0.47925320       0.03195811      -0.00565222       0.01077203      -0.07180850       0.01780511       0.00366767
C        0.50121436      -0.50551111       1.48685398      -0.01742798       0.05696743      -0.01976271      -0.00272784       0.02754121       0.02195904
N       -0.08811894      -0.96515173       2.39202423      -0.07993174      -0.02132992       0.02303243      -0.02945178       0.02860875       0.00583335
N        1.16917180       2.26757301       1.38712612       0.03612979      -0.00991457      -0.04912941       0.02685702       0.01757165       0.01605867
H        1.03904641       3.25273490       1.19575764       0.01189010       0.01502660       0.02967700       0.00333646       0.01418463       0.01316989
H        2.08192037       2.13166815       1.80289165      -0.00993020       0.00310180       0.00933435       0.03798406       0.04175973       0.00105115
C       -0.16722678       1.86455038      -0.50844031      -0.01477293       0.02062474       0.01792834       0.00544389      -0.00545844       0.02844584
N       -1.04703628       2.47597876      -0.99181289      -0.01592448      -0.01843878       0.02245056      -0.02095859      -0.04745024       0.02267459
13
Properties=species:S:1:pos:R:3:mp2_forces:R:3:forces:R:3 R1=H R2=CN R3=NH2 R4=CN lg=Cl nu=Cl rxn-id=468 mp2_energy=-33682.932400907855 energy=-33682.5310204708 free_energy=-33682.93240061125 pbc="F F F"
C        1.31570865       0.03981255       0.43885604       0.00520460      -0.03252515      -0.00400930      -0.01733058       0.00620249       0.00648468
C        1.10925477       1.52897292       0.15787971      -0.00725948      -0.02040344      -0.02170267       0.00549109       0.01061921       0.01437382
H        1.87703644       1.79009748      -0.58674402      -0.00857375       0.01518156       0.00988921      -0.00130721       0.00189104       0.00405659
Cl      -0.66966821      -1.16897015      -1.65181019      -0.01838124      -0.02074209      -0.01343227       0.07179102      -0.07691908      -0.10126810