12
Properties=species:S:1:pos:R:3:mp2_forces:R:3:forces:R:3 R1=NH2 R2=H R3=CN R4=H lg=Cl nu=F rxn-id=2427 mp2_energy=-21380.235948211754 energy=-21380.235949382957 free_energy=-21380.235949382957 pbc="F F F"
C        0.35928396      -0.08859133      -0.00295079      -0.01468957       0.01897523      -0.06760631      -0.01470206       0.01900390      -0.06758788
C        0.86018938       1.33910134       0.13758152       0.02826007      -0.01733755       0.02884049       0.02826607      -0.01734019       0.02883622
H        1.95131507       1.18165562       0.25572198       0.03897321      -0.04547017       0.01879503       0.03897900      -0.04547197       0.01879521
Cl      -1.43460821      -0.10054540      -0.38301469       0.00627884       0.02984224      -0.01298781       0.00630056       0.02983918      -0.01298643
F        3.17593452      -0.20212826       0.39196946      -0.03310952       0.04703223      -0.04567647      -0.03312453       0.04703225      -0.04568151
H        0.41825067      -0.59390450       0.96540252       0.02101945      -0.01087476       0.02784621       0.02102437      -0.01088247       0.02784660
H        0.63305139       1.88066344      -0.78508434       0.07008850      -0.00567589       0.05120521       0.07008317      -0.00567388       0.05120630
N        1.10613324      -0.68994847      -1.06047680      -0.03333301      -0.04559238      -0.00125331      -0.03334469      -0.04559911      -0.00127039
H        0.82063551      -1.65856443      -1.14958546       0.01961735      -0.06609104       0.05845893       0.01961401      -0.06609449       0.05845137
H        2.08704780      -0.65104499      -0.64749725      -0.02843881       0.07470349      -0.05667735      -0.02842147       0.07470469      -0.05666234
C        0.32408943       2.04993265       1.28821382      -0.05561719       0.01060721      -0.00519329      -0.05561904       0.01061849      -0.00518181
N       -0.08713048       2.63257015       2.22122151      -0.01904932       0.00988138       0.00424868      -0.01905539       0.00986361       0.00423467
12
Properties=species:S:1:pos:R:3:mp2_forces:R:3:forces:R:3 R1=NH2 R2=H R3=CN R4=H lg=Cl nu=F rxn-id=2427 mp2_energy=-21380.235948211754 energy=-21380.19505287225 free_energy=-21380.235949382957 pbc="F F F"
C        0.36758066      -0.08489145      -0.02355596      -0.01468957       0.01897523      -0.06760631      -0.00923171       0.00068078       0.00657368
C        0.84809214       1.35179562       0.10629111       0.02826007      -0.01733755       0.02884049       0.01599428      -0.00863114       0.01913026
H        1.94251351       1.20526273       0.20200531       0.03897321      -0.04547017       0.01879503       0.01463988      -0.03798279       0.05286870
Cl      -1.42575680      -0.13392482      -0.38423121       0.00627884       0.02984224      -0.01298781      -0.01187700       0.02786297       0.00747838
F        3.07282620      -0.19865253       0.52491947      -0.03310952       0.04703223      -0.04567647       0.05148102       0.02051453      -0.08811879
H        0.45941336      -0.57767168       0.94802286       0.02101945      -0.01087476       0.02784621      -0.02354958      -0.00695728       0.00586442
H        0.58087548       1.90795467      -0.79516582       0.07008850      -0.00567589       0.05120521       0.06553426      -0.01048441       0.00137361
N        1.11297440      -0.69500898      -1.08435743      -0.03333301      -0.04559238      -0.00125331      -0.02101973      -0.00373575       0.00412850
H        0.83394447      -1.66813775      -1.15211920       0.01961735      -0.06609104       0.05845893       0.00445255      -0.01389648       0.04182387
H        2.07734119      -0.65538444      -0.65185272      -0.02843881       0.07470349      -0.05667735      -0.00483024       0.02951429      -0.02964839
C        0.34993982       2.03901086       1.28912633      -0.05561719       0.01060721      -0.00519329      -0.02005130       0.00067677      -0.00851955
N       -0.00555214       2.60884359       2.25241876      -0.01904932       0.00988138       0.00424868      -0.06154243       0.00243850      -0.01295469
12
Properties=species:S:1:pos:R:3:mp2_forces:R:3:forces:R:3 R1=NH2 R2=H R3=CN R4=H lg=Cl nu=F rxn-id=2427 mp2_energy=-21380.235948211754 energy=-21380.156459098143 free_energy=-21380.235949382957 pbc="F F F"
C        0.38204005      -0.08210254      -0.03132145      -0.01468957       0.01897523      -0.06760631      -0.01627385       0.00133839       0.00645832
C        0.83565345       1.36544799       0.08149700       0.02826007      -0.01733755       0.02884049       0.01583123      -0.00917186       0.02090059
H        1.93142865       1.25105532       0.14189433       0.03897321      -0.04547017       0.01879503       0.01608564      -0.05350214       0.06775137
Cl      -1.41008161      -0.16213230      -0.37715805       0.00627884       0.02984224      -0.01298781      -0.01845070       0.02789368       0.00559126
F        2.99842122      -0.23346481       0.63216275      -0.03310952       0.04703223      -0.04567647       0.07128294       0.01529503      -0.11479456
H        0.50162504      -0.56492120       0.94029952       0.02101945      -0.01087476       0.02784621      -0.03384021      -0.00701625       0.00705103
H        0.51559114       1.92162636      -0.80261768       0.07008850      -0.00567589       0.05120521       0.07931332      -0.01101432      -0.00606081
N        1.13143816      -0.68919119      -1.09518775      -0.03333301      -0.04559238      -0.00125331      -0.02639423       0.00000610       0.00564980
H        0.82937659      -1.65366102      -1.18712181       0.01961735      -0.06609104       0.05845893       0.01123506      -0.01736294       0.05720785
H        2.07900078      -0.68259901      -0.63034845      -0.02843881       0.07470349      -0.05667735      -0.00491220       0.04870103      -0.02717569
C        0.37301029       2.03519966       1.28985147      -0.05561719       0.01060721      -0.00519329      -0.02464550       0.00078084      -0.01539779
N        0.04668851       2.59393855       2.26955161      -0.01904932       0.00988138       0.00424868      -0.06923151       0.00405245      -0.00718138
12
Properties=species:S:1:pos:R:3:mp2_forces:R:3:forces:R:3 R1=NH2 R2=H R3=CN R4=H lg=Cl nu=F rxn-id=2427 mp2_energy=-21380.235948211754 energy=-21380.109810930073 free_energy=-21380.235949382957 pbc="F F F"
C        0.40184227      -0.07936252      -0.03513799      -0.01468957       0.01897523      -0.06760631      -0.03376036       0.00303621       0.00096874
C        0.82919415       1.37810641       0.06160835       0.02826007      -0.01733755       0.02884049       0.00828432      -0.01016298       0.01779964
H        1.92514275       1.30432229       0.08090965       0.03897321      -0.04547017       0.01879503       0.01259597      -0.08427119       0.08159131
Cl      -1.38927607      -0.18104836      -0.36877254       0.00627884       0.02984224      -0.01298781      -0.03263409       0.02039022       0.00599627
F        2.92316993      -0.25919905       0.73303677      -0.03310952       0.04703223      -0.04567647       0.10074618      -0.00144304      -0.14030031
H        0.54594826      -0.55402403       0.93514148       0.02101945      -0.01087476       0.02784621      -0.04416178      -0.00276444       0.00238201
H        0.45456200       1.93036725      -0.80351349       0.07008850      -0.00567589       0.05120521       0.09209421      -0.00241119      -0.01845542
N        1.14967194      -0.68783904      -1.10397065      -0.03333301      -0.04559238      -0.00125331      -0.03146205       0.00989249       0.00709538
H        0.81470775      -1.63839569      -1.22403525       0.01961735      -0.06609104       0.05845893       0.03019392      -0.02350060       0.07265606
H        2.08083843      -0.72203154      -0.61672464      -0.02843881       0.07470349      -0.05667735      -0.00870303       0.08591619      -0.00563300
C        0.39552966       2.03042228       1.29139554      -0.05561719       0.01060721      -0.00519329      -0.02943258       0.00011715      -0.02351307
N        0.08286121       2.57787782       2.28156425      -0.01904932       0.00988138       0.00424868      -0.06376072       0.00520119      -0.00058762
12
Properties=species:S:1:pos:R:3:mp2_forces:R:3:forces:R:3 R1=NH2 R2=H R3=CN R4=H lg=Cl nu=F rxn-id=2427 mp2_energy=-21380.235948211754 energy=-21380.04597270654 free_energy=-21380.235949382957 pbc="F F F"
C        0.42990226      -0.07864719      -0.03280209      -0.01468957       0.01897523      -0.06760631      -0.08047573       0.00890192      -0.02136674
C        0.82898685       1.38912900       0.04942320       0.02826007      -0.01733755       0.02884049      -0.01319264      -0.01275713       0.00286666
H        1.92273064       1.37176691       0.01764828       0.03897321      -0.04547017       0.01879503       0.00226245      -0.15382551       0.09381564
Cl      -1.36068091      -0.18982657      -0.37414170       0.00627884       0.02984224      -0.01298781      -0.05790917       0.00528295       0.02207859
F        2.85186446      -0.26148183       0.82207989      -0.03310952       0.04703223      -0.04567647       0.15895149      -0.04056545      -0.13805023
H        0.58020086      -0.54894813       0.93715347       0.02101945      -0.01087476       0.02784621      -0.03050853       0.01610015      -0.02135788
H        0.39134635       1.92943087      -0.79350388       0.07008850      -0.00567589       0.05120521       0.10640022       0.03204555      -0.03878625
N        1.17107663      -0.69567296      -1.10617636      -0.03333301      -0.04559238      -0.00125331      -0.04501871       0.02934151       0.00104131
H        0.78314164      -1.61956799      -1.26635286       0.01961735      -0.06609104       0.05845893       0.06938382      -0.04268130       0.08575224
H        2.08717236      -0.78719564      -0.61123814      -0.02843881       0.07470349      -0.05667735      -0.02948906       0.16425282       0.04607292
C        0.41984438       2.02538947       1.29730555      -0.05561719       0.01060721      -0.00519329      -0.03549243      -0.00620523      -0.03533719
N        0.10860676       2.56481989       2.29210613      -0.01904932       0.00988138       0.00424868      -0.04491171       0.00010970       0.00327092
12
Properties=species:S:1:pos:R:3:mp2_forces:R:3:forces:R:3 R1=NH2 R2=H R3=CN R4=H lg=Cl nu=F rxn-id=2427 mp2_energy=-21380.235948211754 energy=-21379.94167254839 free_energy=-21380.235949382957 pbc="F F F"
C        0.47113559      -0.08251192      -0.02134425      -0.01468957       0.01897523      -0.06760631      -0.24191020       0.01717002      -0.09190361
C        0.83628400       1.39745473       0.04872896       0.02826007      -0.01733755       0.02884049      -0.05824254      -0.02282397      -0.02570814
H        1.92268635       1.45570377      -0.03640996       0.03897321      -0.04547017       0.01879503      -0.01654493      -0.27558568       0.09411400
Cl      -1.32860006      -0.19327656      -0.39925423       0.00627884       0.02984224      -0.01298781      -0.02491263       0.00418251       0.05393274
F        2.77493697      -0.23367733       0.88522805      -0.03310952       0.04703223      -0.04567647       0.30664585      -0.09314111      -0.05453185
H        0.58750013      -0.55710069       0.94997810       0.02101945      -0.01087476       0.02784621       0.06962239       0.06422430      -0.08021328
H        0.33382672       1.91293930      -0.77313084       0.07008850      -0.00567589       0.05120521       0.10179692       0.10710703      -0.05432721
N        1.19590547      -0.71315143      -1.10192269      -0.03333301      -0.04559238      -0.00125331      -0.08881909       0.05029570      -0.02123098
H        0.74138295      -1.59664247      -1.30327597       0.01961735      -0.06609104       0.05845893       0.11343828      -0.08963951       0.06119813
H        2.10364852      -0.87587249      -0.62897183      -0.02843881       0.07470349      -0.05667735      -0.09823497       0.27676903       0.16628658
C        0.44429088       2.02346958       1.30856371      -0.05561719       0.01060721      -0.00519329      -0.03798140      -0.02603054      -0.04737442
N        0.13119476       2.56186133       2.30331242      -0.01904932       0.00988138       0.00424868      -0.02485768      -0.01252778      -0.00024195
12
Properties=species:S:1:pos:R:3:mp2_forces:R:3:forces:R:3 R1=NH2 R2=H R3=CN R4=H lg=Cl nu=F rxn-id=2427 mp2_energy=-21380.235948211754 energy=-21379.717677464607 free_energy=-21380.235949382957 pbc="F F F"
C        0.55344057      -0.08731588       0.00759327      -0.01468957       0.01897523      -0.06760631      -0.80575245       0.00501334      -0.28783396
C        0.85706943       1.40662594       0.05614822       0.02826007      -0.01733755       0.02884049      -0.10821904      -0.04988624      -0.04420859
H        1.92960727       1.55414203      -0.07014472       0.03897321      -0.04547017       0.01879503      -0.03942298      -0.35355549       0.07390537
Cl      -1.32166250      -0.19416643      -0.41866535       0.00627884       0.02984224      -0.01298781       0.33262976       0.04094461       0.09385568
F        2.66604684      -0.20141632       0.91400322      -0.03310952       0.04703223      -0.04567647       0.56984892      -0.11019348       0.12121402
H        0.56510025      -0.57896938       0.97373442       0.02101945      -0.01087476       0.02784621       0.25618069       0.11982162      -0.11730987
H        0.30075116       1.87915805      -0.75623418       0.07008850      -0.00567589       0.05120521       0.06393721       0.18414694      -0.04163414
N        1.22269159      -0.73138154      -1.09795394      -0.03333301      -0.04559238      -0.00125331      -0.16301364       0.04601098      -0.05228788
H        0.70308667      -1.57286823      -1.31068660       0.01961735      -0.06609104       0.05845893       0.12002977      -0.15110369      -0.03207150
H        2.13757978      -0.96399419      -0.69561482      -0.02843881       0.07470349      -0.05667735      -0.19089339       0.32914421       0.33068778
C        0.46062954       2.02657909       1.31797240      -0.05561719       0.01060721      -0.00519329      -0.02073985      -0.04293355      -0.04133238
N        0.13985168       2.56280269       2.31134956      -0.01904932       0.00988138       0.00424868      -0.01458501      -0.01740925      -0.00298453
12
Properties=species:S:1:pos:R:3:mp2_forces:R:3:forces:R:3 R1=NH2 R2=H R3=CN R4=H lg=Cl nu=F rxn-id=2427 mp2_energy=-21380.235948211754 energy=-21379.482649561127 free_energy=-21380.235949382957 pbc="F F F"
C        0.65474103      -0.08751394       0.04323131      -0.01468957       0.01897523      -0.06760631      -0.83310236       0.00311828      -0.30627281
C        0.87113696       1.41335430       0.06141072       0.02826007      -0.01733755       0.02884049      -0.05404406      -0.03261277      -0.02347129
H        1.93506271       1.59913934      -0.08039560       0.03897321      -0.04547017       0.01879503      -0.01541493      -0.18995038       0.03557296
Cl      -1.36494449      -0.19786363      -0.43122388       0.00627884       0.02984224      -0.01298781       0.39191143       0.04420444       0.08044992
F        2.59513867      -0.18718389       0.90084500      -0.03310952       0.04703223      -0.04567647       0.43092226      -0.05371169       0.13857249
H        0.53297894      -0.59387772       0.98759654       0.02101945      -0.01087476       0.02784621       0.20654643       0.06076988      -0.02842148
H        0.29280040       1.85609997      -0.75138450       0.07008850      -0.00567589       0.05120521       0.03172122       0.11450679      -0.01908871
N        1.24237778      -0.73729313      -1.09185131      -0.03333301      -0.04559238      -0.00125331      -0.10865673       0.01568079      -0.04083086
H        0.68792942      -1.55549718      -1.30290799       0.01961735      -0.06609104       0.05845893       0.06638054      -0.10512946      -0.03017448
H        2.16175589      -1.00352151      -0.73867190      -0.02843881       0.07470349      -0.05667735      -0.10857469       0.19067208       0.21164419
C        0.46443416       2.02966014       1.32074269      -0.05561719       0.01060721      -0.00519329       0.00272842      -0.03207927      -0.02268222
N        0.14078081       2.56369306       2.31411041      -0.01904932       0.00988138       0.00424868      -0.01041753      -0.01546871       0.00470228
12
Properties=species:S:1:pos:R:3:mp2_forces:R:3:forces:R:3 R1=NH2 R2=H R3=CN R4=H lg=Cl nu=F rxn-id=2427 mp2_energy=-21380.235948211754 energy=-21379.4159850054 free_energy=-21380.235949382957 pbc="F F F"
C        0.75934995      -0.08739371       0.08108671      -0.01468957       0.01897523      -0.06760631       0.35118063       0.00215234       0.12764823
C        0.87823397       1.41777804       0.06413857       0.02826007      -0.01733755       0.02884049       0.02175033       0.01286060       0.00719334
H        1.93741401       1.62294382      -0.08558158       0.03897321      -0.04547017       0.01879503       0.00841776       0.06975492      -0.02138640
Cl      -1.41661215      -0.20210668      -0.44276608       0.00627884       0.02984224      -0.01298781      -0.18545965      -0.00346206      -0.04747802
F        2.54274163      -0.18007783       0.88438497      -0.03310952       0.04703223      -0.04567647      -0.16115440       0.02120577      -0.04765625
H        0.50674428      -0.60134472       0.99024880       0.02101945      -0.01087476       0.02784621      -0.08208689      -0.01354891      -0.01242827
H        0.28895975       1.84180249      -0.74934249       0.07008850      -0.00567589       0.05120521      -0.00975636      -0.04564523       0.00269638
N        1.25534401      -0.73929542      -1.08688631      -0.03333301      -0.04559238      -0.00125331       0.03250961      -0.00308454       0.01595655
H        0.67977765      -1.54388541      -1.29529930       0.01961735      -0.06609104       0.05845893      -0.02311921       0.02389296       0.05735641
H        2.17558476      -1.02522437      -0.76572284      -0.02843881       0.07470349      -0.05667735       0.04146399      -0.04667070      -0.08940296
C        0.46510900       2.03173629       1.32165750      -0.05561719       0.01060721      -0.00519329       0.00870509      -0.00912020      -0.01388647
N        0.14154541       2.56426333       2.31558353      -0.01904932       0.00988138       0.00424868      -0.00245091      -0.00833494       0.02138747
12
Properties=species:S:1:pos:R:3:mp2_forces:R:3:forces:R:3 R1=NH2 R2=H R3=CN R4=H lg=Cl nu=F rxn-id=2427 mp2_energy=-21380.235948211754 energy=-21379.64616104697 free_energy=-21380.235949382957 pbc="F F F"
C        0.86492840      -0.08868499       0.12262176      -0.01468957       0.01897523      -0.06760631       1.94116479      -0.01991688       0.75923094
C        0.88262927       1.41959371       0.06665696       0.02826007      -0.01733755       0.02884049       0.08346007       0.03575378       0.04477400
H        1.93802925       1.64132111      -0.08985884       0.03897321      -0.04547017       0.01879503       0.01471904       0.33712941      -0.08436209
Cl      -1.46244541      -0.20637119      -0.45225615       0.00627884       0.02984224      -0.01298781      -0.86547270      -0.06722917      -0.18745704
F        2.48925494      -0.17556411       0.86758793      -0.03310952       0.04703223      -0.04567647      -0.96785980       0.08456963      -0.30114092
H        0.48476555      -0.60299697       0.98462153       0.02101945      -0.01087476       0.02784621      -0.40467324      -0.02855504      -0.11030588
H        0.28621309       1.82852115      -0.74794238       0.07008850      -0.00567589       0.05120521      -0.04933464      -0.24391513       0.02268520
N        1.26536745      -0.73907918      -1.08155700      -0.03333301      -0.04559238      -0.00125331       0.17809184       0.00382149       0.09731414
H        0.67290650      -1.53305828      -1.28711893       0.01961735      -0.06609104       0.05845893      -0.12420444       0.18508574       0.18085755
H        2.18566606      -1.04315386      -0.79014090      -0.02843881       0.07470349      -0.05667735       0.18681457      -0.30980819      -0.45246261
C        0.46472980       2.03367655       1.32209810      -0.05561719       0.01060721      -0.00519329       0.00106080       0.02009584      -0.00815654
N        0.14214738       2.56499189       2.31678941      -0.01904932       0.00988138       0.00424868       0.00623370       0.00296852       0.03902325
12
Properties=species:S:1:pos:R:3:mp2_forces:R:3:forces:R:3 R1=NH2 R2=H R3=CN R4=H lg=Cl nu=F rxn-id=2427 mp2_energy=-21380.235948211754 energy=-21380.134733719828 free_energy=-21380.235949382957 pbc="F F F"
C        0.97060024      -0.09119323       0.16785545      -0.01468957       0.01897523      -0.06760631       2.30733275      -0.05101320       0.98375259
C        0.88944484       1.41938769       0.07093298       0.02826007      -0.01733755       0.02884049       0.15118377      -0.00263698       0.09153435
H        1.93872133       1.66577739      -0.09497730       0.03897321      -0.04547017       0.01879503       0.01851290       0.53196079      -0.11743980
Cl      -1.51432365      -0.21231932      -0.46289504       0.00627884       0.02984224      -0.01298781      -1.15533863      -0.11770497      -0.24556800
F        2.43401118      -0.17112683       0.85413230      -0.03310952       0.04703223      -0.04567647      -1.19197453       0.09790126      -0.28728706
H        0.46337769      -0.59982851       0.97171380       0.02101945      -0.01087476       0.02784621      -0.46518974       0.07101869      -0.28710434
H        0.28306720       1.80888812      -0.74573479       0.07008850      -0.00567589       0.05120521      -0.06712731      -0.42737317       0.04467373
N        1.27868917      -0.73771030      -1.07261356      -0.03333301      -0.04559238      -0.00125331       0.28362842       0.02988103       0.19523025
H        0.66405882      -1.51725104      -1.27570735       0.01961735      -0.06609104       0.05845893      -0.19002379       0.32938086       0.27859777
H        2.19883870      -1.06751848      -0.82230566      -0.02843881       0.07470349      -0.05667735       0.28858662      -0.51069250      -0.70536165
C        0.46476414       2.03605341       1.32275060      -0.05561719       0.01060721      -0.00519329       0.00777253       0.03783411       0.00001154
N        0.14294262       2.56603692       2.31835004      -0.01904932       0.00988138       0.00424868       0.01263700       0.01144407       0.04896064
12
Properties=species:S:1:pos:R:3:mp2_forces:R:3:forces:R:3 R1=NH2 R2=H R3=CN R4=H lg=Cl nu=F rxn-id=2427 mp2_energy=-21380.235948211754 energy=-21380.7193063289 free_energy=-21380.235949382957 pbc="F F F"
C        1.08172183      -0.09191538       0.21725128      -0.01468957       0.01897523      -0.06760631       0.96161295      -0.00394135       0.42672127
C        0.90933510       1.41732509       0.08090727       0.02826007      -0.01733755       0.02884049       0.17202962      -0.01716808       0.08534416
H        1.93970717       1.72424159      -0.10799364       0.03897321      -0.04547017       0.01879503       0.00923202       0.50171994      -0.11683470
Cl      -1.61027805      -0.22963266      -0.48348029       0.00627884       0.02984224      -0.01298781      -0.84824979      -0.12939555      -0.20194380
F        2.39254696      -0.17326338       0.86834919      -0.03310952       0.04703223      -0.04567647      -0.34697874      -0.00967213       0.11851222
H        0.43471214      -0.58405611       0.93586769       0.02101945      -0.01087476       0.02784621      -0.23798689       0.13648182      -0.30345071
H        0.27461885       1.75388987      -0.73771966       0.07008850      -0.00567589       0.05120521      -0.07367787      -0.47642273       0.06776263
N        1.31055783      -0.73285058      -1.05338027      -0.03333301      -0.04559238      -0.00125331       0.26790206       0.03870869       0.16871095
H        0.64348175      -1.47154117      -1.24904818       0.01961735      -0.06609104       0.05845893      -0.17660886       0.37817345       0.25799932
H        2.22433687      -1.12217691      -0.88523827      -0.02843881       0.07470349      -0.05667735       0.22138288      -0.45512094      -0.54711786
C        0.46834312       2.04069483       1.32474019      -0.05561719       0.01060721      -0.00519329       0.03733237       0.02859197       0.00645911
N        0.14510872       2.56848063       2.32124616      -0.01904932       0.00988138       0.00424868       0.01401027       0.00804490       0.03783743
12
Properties=species:S:1:pos:R:3:mp2_forces:R:3:forces:R:3 R1=NH2 R2=H R3=CN R4=H lg=Cl nu=F rxn-id=2427 mp2_energy=-21380.235948211754 energy=-21381.088010618307 free_energy=-21380.235949382957 pbc="F F F"
C        1.16545978      -0.08273231       0.25007753      -0.01468957       0.01897523      -0.06760631       0.20389176       0.02353292       0.07615061
C        0.94183516       1.41755463       0.09398979       0.02826007      -0.01733755       0.02884049       0.08591263       0.00540827       0.03118766
H        1.93027119       1.81278382      -0.15143790       0.03897321      -0.04547017       0.01879503      -0.01631661       0.22326159      -0.11207117
Cl      -1.73269874      -0.27776268      -0.53674428       0.00627884       0.02984224      -0.01298781      -0.34203134      -0.11358932      -0.11671288
F        2.40126879      -0.18972820       0.93601699      -0.03310952       0.04703223      -0.04567647       0.01573593      -0.04617220       0.17293812
H        0.41993485      -0.55515287       0.88667389       0.02101945      -0.01087476       0.02784621      -0.04694876       0.07519338      -0.13325783
H        0.24544535       1.64685015      -0.71067265       0.07008850      -0.00567589       0.05120521      -0.06580083      -0.25275992       0.06483635
N        1.36628406      -0.71556416      -1.03147835      -0.03333301      -0.04559238      -0.00125331       0.14018792       0.03836962       0.05198578
H        0.60167247      -1.35318503      -1.22471287       0.01961735      -0.06609104       0.05845893      -0.08564684       0.26876091       0.07003937
H        2.23286896      -1.22358865      -0.93729197      -0.02843881       0.07470349      -0.05667735       0.03616063      -0.23195584      -0.12932333
C        0.48748607       2.04740899       1.33114939      -0.05561719       0.01060721      -0.00519329       0.06068338       0.00118802      -0.00682327
N        0.15436435       2.57231212       2.32593191      -0.01904932       0.00988138       0.00424868       0.01417211       0.00876257       0.03105059
12
Properties=species:S:1:pos:R:3:mp2_forces:R:3:forces:R:3 R1=NH2 R2=H R3=CN R4=H lg=Cl nu=F rxn-id=2427 mp2_energy=-21380.235948211754 energy=-21381.235075037748 free_energy=-21380.235949382957 pbc="F F F"
C        1.21291212      -0.07335991       0.26899005      -0.01468957       0.01897523      -0.06760631       0.06853291       0.01683704       0.02826437
C        0.95764283       1.41807545       0.10079237       0.02826007      -0.01733755       0.02884049       0.02554145       0.00553626       0.01075881
H        1.90831948       1.86103444      -0.20649911       0.03897321      -0.04547017       0.01879503      -0.03161671       0.07673844      -0.09101802
Cl      -1.80680706      -0.35321845      -0.58856116       0.00627884       0.02984224      -0.01298781      -0.10493298      -0.09625233      -0.08515876
F        2.41248015      -0.19605717       0.99220707      -0.03310952       0.04703223      -0.04567647       0.01825784      -0.01547583       0.07673252
H        0.42700099      -0.54148990       0.86168210       0.02101945      -0.01087476       0.02784621       0.00597784       0.03076532      -0.03533083
H        0.20848777       1.57353058      -0.67512009       0.07008850      -0.00567589       0.05120521      -0.05623689      -0.11579585       0.05259822
N        1.42551514      -0.69133126      -1.01947109      -0.03333301      -0.04559238      -0.00125331       0.07750799       0.03389082       0.01767015
H        0.57818654      -1.19963055      -1.25675129       0.01961735      -0.06609104       0.05845893      -0.03416941       0.20309950      -0.03065332
H        2.19622539      -1.33676039      -0.91576341      -0.02843881       0.07470349      -0.05667735      -0.04826129      -0.14617300       0.03581883
C        0.51606798       2.05582442       1.33891757      -0.05561719       0.01060721      -0.00519329       0.05346492      -0.00219280      -0.01424857
N        0.17816094       2.58257856       2.33107849      -0.01904932       0.00988138       0.00424868       0.02593434       0.00902244       0.03456658
12
Properties=species:S:1:pos:R:3:mp2_forces:R:3:forces:R:3 R1=NH2 R2=H R3=CN R4=H lg=Cl nu=F rxn-id=2427 mp2_energy=-21380.235948211754 energy=-21381.30516685943 free_energy=-21380.235949382957 pbc="F F F"
C        1.23989784      -0.06807460       0.28294009      -0.01468957       0.01897523      -0.06760631       0.03189105       0.01128858       0.01730866
C        0.95952327       1.41660807       0.10588857       0.02826007      -0.01733755       0.02884049      -0.00100718       0.00214046       0.00501161
H        1.88393494       1.88119986      -0.24664363       0.03897321      -0.04547017       0.01879503      -0.03471931       0.02504687      -0.06767483
Cl      -1.82343795      -0.40997329      -0.65524697       0.00627884       0.02984224      -0.01298781      -0.02529946      -0.07894752      -0.07233870