13
Properties=species:S:1:pos:R:3:mp2_forces:R:3:forces:R:3 R1=H R2=CH3 R3=H R4=CN lg=Cl nu=F rxn-id=511 mp2_energy=-20943.780146120425 energy=-20943.780152727217 free_energy=-20943.780152727217 pbc="F F F"
C        0.27306684      -0.06024223       0.07916939      -0.00465945      -0.01088636      -0.00525541      -0.00473603      -0.01087281      -0.00525277
C        0.77337881       1.36582471      -0.03582784       0.01924129      -0.01573521      -0.00975657       0.01924777      -0.01570816      -0.00981115
H        1.89914547       1.16577169      -0.06740470       0.00308312      -0.01933038      -0.02280038       0.00309372      -0.01933634      -0.02279533
Cl      -1.55027849      -0.13334999       0.13781668      -0.00463076       0.00234194       0.00472641      -0.00457826       0.00233725       0.00472492
F        3.08615778       0.12888852      -0.28153410       0.07285678       0.02078282       0.06196778       0.07285213       0.02078315       0.06197152
H        0.56731123      -0.59335476      -0.82212748      -0.02287564      -0.01766052      -0.02017514      -0.02286282      -0.01766721      -0.02018492
H        0.45705362       1.95732140       0.82976955       0.06121796      -0.00145034      -0.01144043       0.06120647      -0.00144474      -0.01142549
C        0.87973738      -0.74247653       1.28481529      -0.00493486      -0.00193108      -0.00705993      -0.00493102      -0.00192943      -0.00705879
H        1.95758593      -0.68298576       1.08688930      -0.00534665       0.02033510       0.00715268      -0.00533445       0.02034031       0.00714457
H        0.61506366      -0.21694678       2.20776355      -0.01942254      -0.00729667      -0.00897006      -0.01942729      -0.00728823      -0.00896569
H        0.55000018      -1.78137127       1.35983166      -0.02122785       0.00152335       0.00750747      -0.02123396       0.00151289       0.00750419
C        0.37995790       2.03209916      -1.26420388      -0.02764210       0.05000492      -0.07555870      -0.02760519       0.04995869      -0.07548323
N        0.11713313       2.57868579      -2.27196200      -0.04565929      -0.02069757       0.07966230      -0.04569106      -0.02068536       0.07963216
13
Properties=species:S:1:pos:R:3:mp2_forces:R:3:forces:R:3 R1=H R2=CH3 R3=H R4=CN lg=Cl nu=F rxn-id=511 mp2_energy=-20943.780146120425 energy=-20943.75552375521 free_energy=-20943.780152727217 pbc="F F F"
C        0.27415961      -0.05547744       0.09059530      -0.00465945      -0.01088636      -0.00525541      -0.00297544      -0.00285321      -0.00967700
C        0.76064612       1.37682679      -0.02061671       0.01924129      -0.01573521      -0.00975657       0.01421099      -0.01066927      -0.01871030
H        1.88038333       1.18791528      -0.03663077       0.00308312      -0.01933038      -0.02280038       0.01979310      -0.03351761      -0.04452799
Cl      -1.54871166      -0.14781936       0.15224616      -0.00463076       0.00234194       0.00472641      -0.00310583       0.00886144      -0.01274186
F        3.03945334       0.10075279      -0.35942663       0.07285678       0.02078282       0.06196778       0.06146276       0.03663555       0.07571647
H        0.57466390      -0.57957558      -0.81338809      -0.02287564      -0.01766052      -0.02017514      -0.01029051      -0.01278222      -0.00784948
H        0.42187451       1.98038126       0.82719997       0.06121796      -0.00145034      -0.01144043       0.05916555      -0.01360720       0.00251710
C        0.88577885      -0.74244229       1.29159177      -0.00493486      -0.00193108      -0.00705993      -0.01032796      -0.00041274      -0.00375922
H        1.96252551      -0.66387183       1.09933928      -0.00534665       0.02033510       0.00715268      -0.00838448      -0.00909713       0.00152378
H        0.60116112      -0.24382569       2.22318452      -0.01942254      -0.00729667      -0.00897006      -0.00543400       0.01459839      -0.00998226
H        0.57731096      -1.78945820       1.34470758      -0.02122785       0.00152335       0.00750747      -0.02300718       0.00360807       0.00877723
C        0.40215823       2.02782110      -1.26839025      -0.02764210       0.05000492      -0.07555870      -0.02727327       0.00443432       0.00308470
N        0.17390962       2.56663711      -2.28741671      -0.04565929      -0.02069757       0.07966230      -0.06383373       0.01480163       0.01562883
13
Properties=species:S:1:pos:R:3:mp2_forces:R:3:forces:R:3 R1=H R2=CH3 R3=H R4=CN lg=Cl nu=F rxn-id=511 mp2_energy=-20943.780146120425 energy=-20943.72901866967 free_energy=-20943.780152727217 pbc="F F F"
C        0.28305413      -0.05196167       0.09776050      -0.00465945      -0.01088636      -0.00525541      -0.00857388      -0.00262535      -0.00949798
C        0.75160537       1.38845018      -0.00228837       0.01924129      -0.01573521      -0.00975657       0.01257512      -0.01211041      -0.01989343
H        1.86530381       1.22180003       0.00206772       0.00308312      -0.01933038      -0.02280038       0.02099175      -0.05359044      -0.06393763
Cl      -1.53859804      -0.15790162       0.14762863      -0.00463076       0.00234194       0.00472641      -0.00721445       0.00346252      -0.01916933
F        2.97774755       0.05548404      -0.44150126       0.07285678       0.02078282       0.06196778       0.08008568       0.05103635       0.09190821
H        0.60246415      -0.56460448      -0.80513179      -0.02287564      -0.01766052      -0.02017514      -0.01335393      -0.01229933      -0.00732718
H        0.37259341       1.99199556       0.82818224       0.06121796      -0.00145034      -0.01144043       0.07434757      -0.01320986       0.01095642
C        0.89257876      -0.74071394       1.29861646      -0.00493486      -0.00193108      -0.00705993      -0.01359543       0.00044848      -0.00380518
H        1.96845958      -0.66083066       1.10614251      -0.00534665       0.02033510       0.00715268      -0.01250034      -0.00860844      -0.00425974
H        0.60169978      -0.25166227       2.23338474      -0.01942254      -0.00729667      -0.00897006      -0.00221002       0.01866753      -0.00949246
H        0.59024259      -1.79000859       1.34160943      -0.02122785       0.00152335       0.00750747      -0.02752593       0.00478123       0.01245328
C        0.42238184       2.02484199      -1.26731602      -0.02764210       0.05000492      -0.07555870      -0.03553311       0.00712827       0.00571828
N        0.21578051       2.55297538      -2.29615937      -0.04565929      -0.02069757       0.07966230      -0.06749303       0.01691943       0.01634673
13
Properties=species:S:1:pos:R:3:mp2_forces:R:3:forces:R:3 R1=H R2=CH3 R3=H R4=CN lg=Cl nu=F rxn-id=511 mp2_energy=-20943.780146120425 energy=-20943.695512592458 free_energy=-20943.780152727217 pbc="F F F"
C        0.29653497      -0.04974288       0.10231579      -0.00465945      -0.01088636      -0.00525541      -0.01839679      -0.00122234      -0.00609189
C        0.74729134       1.39874091       0.01237366       0.01924129      -0.01573521      -0.00975657       0.00679474      -0.01236857      -0.01732799
H        1.85419633       1.26682996       0.04740642       0.00308312      -0.01933038      -0.02280038       0.01953149      -0.08060158      -0.08574421
Cl      -1.52452127      -0.16133221       0.14453479      -0.00463076       0.00234194       0.00472641      -0.01531548      -0.00517037      -0.03037292
F        2.91315568       0.00052467      -0.52240812       0.07285678       0.02078282       0.06196778       0.09933570       0.06474109       0.10802474
H        0.63180600      -0.55341885      -0.79879789      -0.02287564      -0.01766052      -0.02017514      -0.01433345      -0.00746904      -0.00242947
H        0.32308010       2.00013850       0.82243719       0.06121796      -0.00145034      -0.01144043       0.08670816      -0.00763725       0.02439751
C        0.89996368      -0.73928434       1.30553486      -0.00493486      -0.00193108      -0.00705993      -0.01734577       0.00223882      -0.00362693
H        1.97620764      -0.65845940       1.12079806      -0.00534665       0.02033510       0.00715268      -0.01891760      -0.00408051      -0.02263244
H        0.59573347      -0.25988072       2.24116694      -0.01942254      -0.00729667      -0.00897006       0.00775409       0.02151388      -0.00500407
H        0.60407761      -1.79083786       1.33694553      -0.02122785       0.00152335       0.00750747      -0.02963070       0.00598779       0.01617224
C        0.44300895       2.02132342      -1.26803605      -0.02764210       0.05000492      -0.07555870      -0.04422544       0.00951718       0.00974123
N        0.24477894       2.54326276      -2.30127577      -0.04565929      -0.02069757       0.07966230      -0.06195896       0.01455091       0.01489420
13
Properties=species:S:1:pos:R:3:mp2_forces:R:3:forces:R:3 R1=H R2=CH3 R3=H R4=CN lg=Cl nu=F rxn-id=511 mp2_energy=-20943.780146120425 energy=-20943.650510809406 free_energy=-20943.780152727217 pbc="F F F"
C        0.31218062      -0.04885800       0.10529095      -0.00465945      -0.01088636      -0.00525541      -0.03623731       0.00202221       0.00251641
C        0.74494668       1.40759548       0.02260764       0.01924129      -0.01573521      -0.00975657      -0.00348912      -0.01223731      -0.00885095
H        1.84369902       1.32561784       0.10419641       0.00308312      -0.01933038      -0.02280038       0.01572291      -0.11535353      -0.10194796
Cl      -1.51023952      -0.15650551       0.15884952      -0.00463076       0.00234194       0.00472641      -0.02776342      -0.01567457      -0.05085181
F        2.84524682      -0.05512591      -0.59927325       0.07285678       0.02078282       0.06196778       0.12408533       0.07441985       0.11289287
H        0.64862235      -0.54781677      -0.79713550      -0.02287564      -0.01766052      -0.02017514      -0.00256247       0.00351255       0.01227023
H        0.26767317       2.00519098       0.80591797       0.06121796      -0.00145034      -0.01144043       0.09473491       0.00559087       0.04229623
C        0.91054409      -0.74009477       1.31010416      -0.00493486      -0.00193108      -0.00705993      -0.02462218       0.00613749      -0.00246245
H        1.98811749      -0.65505184       1.14348941      -0.00534665       0.02033510       0.00715268      -0.03103135       0.00751160      -0.06214161
H        0.58428660      -0.27408460       2.24520197      -0.01942254      -0.00729667      -0.00897006       0.02465225       0.02265815       0.00687164
H        0.62496016      -1.79485809       1.32568248      -0.02122785       0.00152335       0.00750747      -0.03124057       0.00818986       0.02093565
C        0.46951832       2.01569478      -1.27374170      -0.02764210       0.05000492      -0.07555870      -0.05202780       0.00847634       0.01582318
N        0.27575763       2.53616037      -2.30819464      -0.04565929      -0.02069757       0.07966230      -0.05022119       0.00474648       0.01264857
13
Properties=species:S:1:pos:R:3:mp2_forces:R:3:forces:R:3 R1=H R2=CH3 R3=H R4=CN lg=Cl nu=F rxn-id=511 mp2_energy=-20943.780146120425 energy=-20943.58949545807 free_energy=-20943.780152727217 pbc="F F F"
C        0.32990984      -0.04909276       0.10625528      -0.00465945      -0.01088636      -0.00525541      -0.08035620       0.00786888       0.02298084
C        0.74270712       1.41592798       0.02758538       0.01924129      -0.01573521      -0.00975657      -0.02099549      -0.01509510       0.00523022
H        1.83030492       1.39763594       0.16881217       0.00308312      -0.01933038      -0.02280038       0.01006395      -0.17592456      -0.10531769
Cl      -1.49782820      -0.14472604       0.20250162      -0.00463076       0.00234194       0.00472641      -0.03717373      -0.02604833      -0.08088765
F        2.77286302      -0.09593885      -0.66102135       0.07285678       0.02078282       0.06196778       0.17146063       0.08026110       0.08368023
H        0.63896986      -0.54816239      -0.80495852      -0.02287564      -0.01766052      -0.02017514       0.04160500       0.02301477       0.04914753
H        0.20558067       2.00504715       0.77818648       0.06121796      -0.00145034      -0.01144043       0.09647494       0.03704751       0.05503378
C        0.92721001      -0.74558277       1.30961189      -0.00493486      -0.00193108      -0.00705993      -0.04378267       0.01484891       0.00237532
H        2.00704372      -0.65593322       1.17493255      -0.00534665       0.02033510       0.00715268      -0.05518769       0.03726382      -0.13351581
H        0.57244568      -0.29499707       2.24180268      -0.01942254      -0.00729667      -0.00897006       0.04140969       0.01636829       0.03568834
H        0.65159024      -1.80315189       1.30644023      -0.02122785       0.00152335       0.00750747      -0.03128124       0.01133126       0.02640614
C        0.50352089       2.00844106      -1.28531099      -0.02764210       0.05000492      -0.07555870      -0.05208972      -0.00182710       0.02301326
N        0.32099570       2.52839682      -2.32184200      -0.04565929      -0.02069757       0.07966230      -0.04014750      -0.00910946       0.01616549
13
Properties=species:S:1:pos:R:3:mp2_forces:R:3:forces:R:3 R1=H R2=CH3 R3=H R4=CN lg=Cl nu=F rxn-id=511 mp2_energy=-20943.780146120425 energy=-20943.493840561812 free_energy=-20943.780152727217 pbc="F F F"
C        0.36874168      -0.05182299       0.09612474      -0.00465945      -0.01088636      -0.00525541      -0.26020874       0.01651231       0.07954763
C        0.75211146       1.42408124       0.02369102       0.01924129      -0.01573521      -0.00975657      -0.06070144      -0.02582966       0.02408863
H        1.82453047       1.48546433       0.22071405       0.00308312      -0.01933038      -0.02280038      -0.00625750      -0.27402713      -0.09440206
Cl      -1.47875556      -0.12737121       0.25326717      -0.00463076       0.00234194       0.00472641       0.01852546      -0.03401690      -0.10807579
F        2.69413454      -0.12717328      -0.69327432       0.07285678       0.02078282       0.06196778       0.29950064       0.06814315      -0.01569269
H        0.61364686      -0.55805830      -0.82904353      -0.02287564      -0.01766052      -0.02017514       0.14060031       0.06427951       0.11899356
H        0.15629256       1.98781937       0.74889722       0.06121796      -0.00145034      -0.01144043       0.08619365       0.10874038       0.05337022
C        0.94912302      -0.75513190       1.30607646      -0.00493486      -0.00193108      -0.00705993      -0.08874145       0.02794155       0.01121457
H        2.03378970      -0.67702393       1.23697095      -0.00534665       0.02033510       0.00715268      -0.09625048       0.09575028      -0.24733986
H        0.55319454      -0.30724987       2.22236484      -0.01942254      -0.00729667      -0.00897006       0.05008607      -0.01177695       0.09682285
H        0.66532784      -1.81020806       1.28836041      -0.02122785       0.00152335       0.00750747      -0.01791885       0.00467574       0.03400513
C        0.52955303       2.00737029      -1.29761350      -0.02764210       0.05000492      -0.07555870      -0.04124737      -0.02144887       0.02584379
N        0.34362330       2.52716825      -2.33354010      -0.04565929      -0.02069757       0.07966230      -0.02358030      -0.01894340       0.02162402
13
Properties=species:S:1:pos:R:3:mp2_forces:R:3:forces:R:3 R1=H R2=CH3 R3=H R4=CN lg=Cl nu=F rxn-id=511 mp2_energy=-20943.780146120425 energy=-20943.287868021194 free_energy=-20943.780152727217 pbc="F F F"
C        0.45730231      -0.05638365       0.07069835      -0.00465945      -0.01088636      -0.00525541      -0.78958614       0.01865964       0.19449118
C        0.77280507       1.43365732       0.01529693       0.01924129      -0.01573521      -0.00975657      -0.09224079      -0.04316580       0.02989919
H        1.82603850       1.58024946       0.25601047       0.00308312      -0.01933038      -0.02280038      -0.02307449      -0.29841961      -0.06555959
Cl      -1.48414155      -0.11541185       0.29006147      -0.00463076       0.00234194       0.00472641       0.33477088      -0.00784006      -0.09316443
F        2.58746433      -0.15079039      -0.68998264       0.07285678       0.02078282       0.06196778       0.48813392       0.03324360      -0.16486757
H        0.56785798      -0.57869182      -0.86651947      -0.02287564      -0.01766052      -0.02017514       0.25988475       0.09875336       0.14616118
H        0.12626254       1.95412534       0.72825933       0.06121796      -0.00145034      -0.01144043       0.05050962       0.16407985       0.03069696
C        0.97918125      -0.76485798       1.30225322      -0.00493486      -0.00193108      -0.00705993      -0.12431071       0.02791500       0.00932410
H        2.06589386      -0.70938272       1.32069071      -0.00534665       0.02033510       0.00715268      -0.11208091       0.11936147      -0.28858840
H        0.53647957      -0.30698172       2.19085709      -0.01942254      -0.00729667      -0.00897006       0.03257940      -0.04260456       0.13337671
H        0.67267331      -1.81207875       1.27355049      -0.02122785       0.00152335       0.00750747       0.00101269      -0.01907533       0.03887320
C        0.54585960       2.01354503      -1.30637237      -0.02764210       0.05000492      -0.07555870      -0.01644898      -0.03435399       0.01323134
N        0.35163666       2.53086568      -2.34180817      -0.04565929      -0.02069757       0.07966230      -0.00914924      -0.01655357       0.01612614
13
Properties=species:S:1:pos:R:3:mp2_forces:R:3:forces:R:3 R1=H R2=CH3 R3=H R4=CN lg=Cl nu=F rxn-id=511 mp2_energy=-20943.780146120425 energy=-20943.115354042333 free_energy=-20943.780152727217 pbc="F F F"
C        0.56565077      -0.05891527       0.04430537      -0.00465945      -0.01088636      -0.00525541      -0.42614780       0.01032687       0.10562004
C        0.78532474       1.44011049       0.01145305       0.01924129      -0.01573521      -0.00975657      -0.03489610      -0.01469209       0.01207216
H        1.82926404       1.62235287       0.26600206       0.00308312      -0.01933038      -0.02280038      -0.00771642      -0.10881312      -0.01856251
Cl      -1.53102616      -0.11431485       0.30316121      -0.00463076       0.00234194       0.00472641       0.18425472       0.00367112      -0.03085122
F        2.51944111      -0.15470455      -0.66817312       0.07285678       0.02078282       0.06196778       0.22527773       0.01346970      -0.08491342
H        0.53149170      -0.59182171      -0.88651855      -0.02287564      -0.01766052      -0.02017514       0.11621534       0.03595408       0.04463015
H        0.11883910       1.93276194       0.72423187       0.06121796      -0.00145034      -0.01144043       0.01350293       0.07176052       0.00930999
C        0.99653338      -0.76906985       1.30106867      -0.00493486      -0.00193108      -0.00705993      -0.04618356       0.00703412       0.00498380
H        2.08167296      -0.72612765       1.36050167      -0.00534665       0.02033510       0.00715268      -0.03964490       0.04398476      -0.11080254
H        0.53220341      -0.30209429       2.17297971      -0.01942254      -0.00729667      -0.00897006       0.01063994      -0.02291916       0.05448829
H        0.67319930      -1.80994099       1.26740148      -0.02122785       0.00152335       0.00750747       0.00472746      -0.01280888       0.01175627
C        0.54861225       2.01793471      -1.30827792      -0.02764210       0.05000492      -0.07555870      -0.00018090      -0.01602959       0.00153186
N        0.35410682       2.53169310      -2.34514008      -0.04565929      -0.02069757       0.07966230       0.00015155      -0.01093833       0.00073711
13
Properties=species:S:1:pos:R:3:mp2_forces:R:3:forces:R:3 R1=H R2=CH3 R3=H R4=CN lg=Cl nu=F rxn-id=511 mp2_energy=-20943.780146120425 energy=-20943.18161865187 free_energy=-20943.780152727217 pbc="F F F"
C        0.68907900      -0.06194053       0.01428316      -0.00465945      -0.01088636      -0.00525541       1.22289260      -0.02952153      -0.29569773
C        0.79129293       1.44373637       0.00948774       0.01924129      -0.01573521      -0.00975657       0.05804041       0.04007080      -0.01751656
H        1.83061363       1.64313350       0.26985379       0.00308312      -0.01933038      -0.02280038       0.01413145       0.21247616       0.04538295
Cl      -1.58648855      -0.11594427       0.31025238      -0.00463076       0.00234194       0.00472641      -0.55439725      -0.01559686       0.07502617
F        2.46458858      -0.15575180      -0.64576438       0.07285678       0.02078282       0.06196778      -0.54629937      -0.00537912       0.21781193
H        0.50168916      -0.59682322      -0.89104380      -0.02287564      -0.01766052      -0.02017514      -0.30311630      -0.04672715      -0.04432367
H        0.11595748       1.91911928       0.72344101       0.06121796      -0.00145034      -0.01144043      -0.03394697      -0.12680091      -0.00731131
C        1.00507328      -0.77060000       1.30005838      -0.00493486      -0.00193108      -0.00705993       0.08666726      -0.01833954      -0.00893369
H        2.08858944      -0.73478366       1.38112878      -0.00534665       0.02033510       0.00715268       0.07140658      -0.08797467       0.20384148
H        0.53029778      -0.29774129       2.16241485      -0.01942254      -0.00729667      -0.00897006      -0.01887750       0.03655806      -0.10165016
H        0.67222344      -1.80756943       1.26380409      -0.02122785       0.00152335       0.00750747      -0.00494715       0.01927518      -0.04175824
C        0.54762673       2.02076520      -1.30845903      -0.02764210       0.05000492      -0.07555870      -0.00677374       0.02555310      -0.00318911
N        0.35477055       2.53226381      -2.34646153      -0.04565929      -0.02069757       0.07966230       0.01521998      -0.00359352      -0.02168205
13
Properties=species:S:1:pos:R:3:mp2_forces:R:3:forces:R:3 R1=H R2=CH3 R3=H R4=CN lg=Cl nu=F rxn-id=511 mp2_energy=-20943.780146120425 energy=-20943.5357056024 free_energy=-20943.780152727217 pbc="F F F"
C        0.79660709      -0.06629634      -0.01575227      -0.00465945      -0.01088636      -0.00525541       2.52820501      -0.10177559      -0.70489682
C        0.79643857       1.44476087       0.00735228       0.01924129      -0.01573521      -0.00975657       0.11996148       0.02812846      -0.04674404
H        1.83126147       1.66231155       0.27345192       0.00308312      -0.01933038      -0.02280038       0.01599097       0.45750344       0.09202499
Cl      -1.63277584      -0.11746052       0.31594536      -0.00463076       0.00234194       0.00472641      -1.09267555      -0.03679814       0.13746892
F        2.41460905      -0.15808867      -0.62592960       0.07285678       0.02078282       0.06196778      -1.17972412      -0.04990467       0.46188231
H        0.47605880      -0.59650507      -0.88741637      -0.02287564      -0.01766052      -0.02017514      -0.61256602       0.01078532       0.08688390
H        0.11340319       1.90527245       0.72249617       0.06121796      -0.00145034      -0.01144043      -0.06549775      -0.31647900      -0.02164203
C        1.01253150      -0.77103120       1.29702663      -0.00493486      -0.00193108      -0.00705993       0.17785562      -0.01303411      -0.07013323
H        2.09440085      -0.74284928       1.40033603      -0.00534665       0.02033510       0.00715268       0.14007235      -0.19172481       0.45059335
H        0.52871334      -0.29328758       2.15161493      -0.01942254      -0.00729667      -0.00897006      -0.03687712       0.09775721      -0.25028021
H        0.67185569      -1.80529007       1.26013347      -0.02122785       0.00152335       0.00750747      -0.00338237       0.04953668      -0.09247543
C        0.54686118       2.02342357      -1.30856610      -0.02764210       0.05000492      -0.07555870      -0.01664732       0.06369778      -0.01053115
N        0.35534853       2.53290426      -2.34769704      -0.04565929      -0.02069757       0.07966230       0.02528483       0.00230743      -0.03215055
13
Properties=species:S:1:pos:R:3:mp2_forces:R:3:forces:R:3 R1=H R2=CH3 R3=H R4=CN lg=Cl nu=F rxn-id=511 mp2_energy=-20943.780146120425 energy=-20944.154341536036 free_energy=-20943.780152727217 pbc="F F F"
C        0.92379865      -0.07283402      -0.05566241      -0.00465945      -0.01088636      -0.00525541       1.99653780      -0.10125000      -0.62565806
C        0.80936647       1.44281150       0.00243671       0.01924129      -0.01573521      -0.00975657       0.19963612      -0.02555803      -0.07342745
H        1.83312086       1.70006267       0.27923063       0.00308312      -0.01933038      -0.02280038       0.02634189       0.59976095       0.10384511
Cl      -1.70627680      -0.11985772       0.32473364      -0.00463076       0.00234194       0.00472641      -1.15485841      -0.04368955       0.14480786
F        2.35850976      -0.16745564      -0.60483191       0.07285678       0.02078282       0.06196778      -0.89339182      -0.14164934       0.32351752
H        0.44214869      -0.58757387      -0.86980969      -0.02287564      -0.01766052      -0.02017514      -0.55833390       0.14766634       0.28725340
H        0.10942016       1.87410522       0.71990519       0.06121796      -0.00145034      -0.01144043      -0.07454005      -0.48255452      -0.04260044
C        1.02904598      -0.77015670       1.28799987      -0.00493486      -0.00193108      -0.00705993       0.26488097       0.01015264      -0.14118852
H        2.10605310      -0.75926586       1.43756599      -0.00534665       0.02033510       0.00715268       0.18955131      -0.25677493       0.58223641
H        0.52579315      -0.28387242       2.12756010      -0.01942254      -0.00729667      -0.00897006      -0.04448342       0.14129173      -0.37674493
H        0.67221276      -1.79994766       1.25202909      -0.02122785       0.00152335       0.00750747       0.01788479       0.07717729      -0.13599407
C        0.54657222       2.02762510      -1.30874347      -0.02764210       0.05000492      -0.07555870       0.00060745       0.06894158      -0.01320890
N        0.35554846       2.53422336      -2.34941832      -0.04565929      -0.02069757       0.07966230       0.03016728       0.00648586      -0.03283793
13
Properties=species:S:1:pos:R:3:mp2_forces:R:3:forces:R:3 R1=H R2=CH3 R3=H R4=CN lg=Cl nu=F rxn-id=511 mp2_energy=-20943.780146120425 energy=-20944.638412855733 free_energy=-20943.780152727217 pbc="F F F"
C        1.02319212      -0.07570527      -0.08300945      -0.00465945      -0.01088636      -0.00525541       0.43016558      -0.01331402      -0.11747380
C        0.84321787       1.43863824      -0.00546771       0.01924129      -0.01573521      -0.00975657       0.14647850      -0.01502747      -0.03548750
H        1.83415806       1.78337000       0.30015395       0.00308312      -0.01933038      -0.02280038       0.00354803       0.36047363       0.10206839
Cl      -1.84684596      -0.12542713       0.34878928      -0.00463076       0.00234194       0.00472641      -0.59281092      -0.01621566       0.10676361
F        2.34720594      -0.20473629      -0.62960865       0.07285678       0.02078282       0.06196778      -0.04177905      -0.16357600      -0.10761448
H        0.39233865      -0.55785735      -0.82009541      -0.02287564      -0.01766052      -0.02017514      -0.21261278       0.12883167       0.21375735
H        0.09624825       1.78801456       0.70767704       0.06121796      -0.00145034      -0.01144043      -0.06336386      -0.36120339      -0.05872717
C        1.06739683      -0.76539875       1.27381983      -0.00493486      -0.00193108      -0.00705993       0.16115648       0.01838928      -0.06008647
H        2.12951149      -0.78796485       1.51832580      -0.00534665       0.02033510       0.00715268       0.09594672      -0.12418324       0.34485752
H        0.51561042      -0.25895175       2.06676180      -0.01942254      -0.00729667      -0.00897006      -0.04338696       0.10140428      -0.25409153
H        0.68319945      -1.78524770       1.22673086      -0.02122785       0.00152335       0.00750747       0.04555508       0.06094637      -0.11587271
C        0.55645238       2.03264301      -1.30962035      -0.02764210       0.05000492      -0.07555870       0.05248609       0.01702968      -0.00383522
N        0.36362793       2.53648723      -2.35146157      -0.04565929      -0.02069757       0.07966230       0.01861709       0.00644485      -0.01425799
13
Properties=species:S:1:pos:R:3:mp2_forces:R:3:forces:R:3 R1=H R2=CH3 R3=H R4=CN lg=Cl nu=F rxn-id=511 mp2_energy=-20943.780146120425 energy=-20944.8169179625 free_energy=-20943.780152727217 pbc="F F F"
C        1.06905062      -0.07654043      -0.09458484      -0.00465945      -0.01088636      -0.00525541       0.10149175      -0.00152320      -0.02250615
C        0.87567905       1.43440725      -0.01037412       0.01924129      -0.01573521      -0.00975657       0.06432044      -0.00508014      -0.00773936
H        1.82675177       1.84144858       0.34560226       0.00308312      -0.01933038      -0.02280038      -0.01570216       0.14290600       0.08028566
Cl      -1.96987722      -0.12397166       0.38219796      -0.00463076       0.00234194       0.00472641      -0.25222363       0.00408401       0.07899152