11
Properties=species:S:1:pos:R:3:mp2_forces:R:3:forces:R:3 R1=CN R2=H R3=CN R4=H lg=Br nu=Br rxn-id=1263 mp2_energy=-147186.40560807893 energy=-147186.40562341665 free_energy=-147186.40562341665 pbc="F F F"
C        0.51711451      -0.03402951      -0.08850660       0.06994833       0.02956501      -0.03121554       0.06992507       0.02958663      -0.03124478
C        0.86400161       1.45546593      -0.03208970       0.01884330      -0.02154965       0.01684973       0.01885679      -0.02154409       0.01680846
H        1.95834073       1.49987266      -0.09986959      -0.01548764       0.00798808       0.00758226      -0.01549598       0.00798340       0.00758312
Br      -1.43363089      -0.30553640       0.01022747       0.05741761       0.00842887       0.01589073       0.05741962       0.00843176       0.01589061
Br       3.67434528      -0.25280166       0.86662141      -0.02065783       0.01195734       0.02661614      -0.02065853       0.01195651       0.02661583
H        0.97123128      -0.54440499       0.76183009      -0.00065458      -0.02586239      -0.02343134      -0.00064384      -0.02587377      -0.02341447
H        0.39931141       1.99547934      -0.86302455       0.02841555      -0.04788822       0.02044365       0.02841272      -0.04789735       0.02044893
C        0.99942278      -0.63565170      -1.32638384      -0.02757476      -0.02800780       0.03125532      -0.02759283      -0.02798429       0.03130746
N        1.33623276      -1.11973447      -2.34254141      -0.07148985       0.05312429      -0.01812343      -0.07146251       0.05310187      -0.01815163
C        0.45567913       2.06053763       1.23278348      -0.00147923       0.00276015      -0.01032955      -0.00148568       0.00275429      -0.01032679
N        0.13694672       2.56688942       2.24252169      -0.03728087       0.00948432      -0.03553795      -0.03727483       0.00948504      -0.03551673
11
Properties=species:S:1:pos:R:3:mp2_forces:R:3:forces:R:3 R1=CN R2=H R3=CN R4=H lg=Br nu=Br rxn-id=1263 mp2_energy=-147186.40560807893 energy=-147186.41374168484 free_energy=-147186.40562341665 pbc="F F F"
C        0.53371363      -0.04150807      -0.09477195       0.06994833       0.02956501      -0.03121554       0.00618901      -0.00196733      -0.00186848
C        0.86166247       1.45142269      -0.04222181       0.01884330      -0.02154965       0.01684973       0.01053474      -0.00282118       0.00136187
H        1.94850332       1.52667550      -0.15352703      -0.01548764       0.00798808       0.00758226       0.01496142      -0.01423465       0.02474217
Br      -1.41398236      -0.32513981       0.01366830       0.05741761       0.00842887       0.01589073       0.01085299      -0.00282774       0.03542386
Br       3.61139944      -0.24844840       0.97586658      -0.02065783       0.01195734       0.02661614       0.01275700       0.00468137       0.02379026
H        0.99801710      -0.55130909       0.74997512      -0.00065458      -0.02586239      -0.02343134       0.02577500      -0.00388587      -0.01237822
H        0.35147454       1.98062026      -0.85194623       0.02841555      -0.04788822       0.02044365       0.03143660      -0.00111112      -0.01220796
C        1.00041094      -0.63567953      -1.33991283      -0.02757476      -0.02800780       0.03125532      -0.02273307       0.00718529      -0.00833769
N        1.31185432      -1.09632231      -2.37450716      -0.07148985       0.05312429      -0.01812343      -0.03712280       0.00963617      -0.02704386
C        0.48772508       2.05373639       1.23477651      -0.00147923       0.00276015      -0.01032955      -0.01395069      -0.00021296      -0.00995165
N        0.18821684       2.57203862       2.24416896      -0.03728087       0.00948432      -0.03553795      -0.03870020       0.00555802      -0.01353030
11
Properties=species:S:1:pos:R:3:mp2_forces:R:3:forces:R:3 R1=CN R2=H R3=CN R4=H lg=Br nu=Br rxn-id=1263 mp2_energy=-147186.40560807893 energy=-147186.4004643738 free_energy=-147186.40562341665 pbc="F F F"
C        0.52911408      -0.04067861      -0.09767170       0.06994833       0.02956501      -0.03121554       0.00491753      -0.00147851      -0.00374151
C        0.84815008       1.45472960      -0.04883726       0.01884330      -0.02154965       0.01684973       0.01244636      -0.00279571       0.00125452
H        1.92814806       1.54648009      -0.19950813      -0.01548764       0.00798808       0.00758226       0.02065615      -0.02314040       0.03336521
Br      -1.42083218      -0.32730582      -0.02234056       0.05741761       0.00842887       0.01589073       0.01123802      -0.00101155       0.04544116
Br       3.57953337      -0.24700964       0.98855384      -0.02065783       0.01195734       0.02661614       0.02368543       0.00696932       0.02534338
H        0.97703001      -0.54655031       0.75770079      -0.00065458      -0.02586239      -0.02343134       0.03121278      -0.00235623      -0.01535662
H        0.30223369       1.98180404      -0.83624500       0.02841555      -0.04788822       0.02044365       0.04157733       0.00233181      -0.01825899
C        1.01996083      -0.64041757      -1.33088201      -0.02757476      -0.02800780       0.03125532      -0.03272960       0.01098702      -0.00530706
N        1.35052390      -1.10582162      -2.35733417      -0.07148985       0.05312429      -0.01812343      -0.04121886       0.00713806      -0.03591767
C        0.51588195       2.04833685       1.24378137      -0.00147923       0.00276015      -0.01032955      -0.01924282      -0.00207399      -0.01421126
N        0.24925154       2.56251923       2.26435127      -0.03728087       0.00948432      -0.03553795      -0.05254231       0.00543017      -0.01261115
11
Properties=species:S:1:pos:R:3:mp2_forces:R:3:forces:R:3 R1=CN R2=H R3=CN R4=H lg=Br nu=Br rxn-id=1263 mp2_energy=-147186.40560807893 energy=-147186.3810182939 free_energy=-147186.40562341665 pbc="F F F"
C        0.52611442      -0.03981370      -0.09730287       0.06994833       0.02956501      -0.03121554      -0.00268876       0.00021857      -0.00846826
C        0.83581315       1.45848121      -0.05154165       0.01884330      -0.02154965       0.01684973       0.01089663      -0.00221326      -0.00061529
H        1.90669750       1.57037591      -0.24267506      -0.01548764       0.00798808       0.00758226       0.02516651      -0.03907896       0.04334019
Br      -1.42790302      -0.32496002      -0.07243790       0.05741761       0.00842887       0.01589073       0.00700707      -0.00418727       0.06128009
Br       3.55092181      -0.24724317       0.97724111      -0.02065783       0.01195734       0.02661614       0.03998558       0.00953082       0.03165369
H        0.94620624      -0.54337009       0.77257056      -0.00065458      -0.02586239      -0.02343134       0.03844983       0.00225496      -0.02282664
H        0.25310801       1.98098990      -0.81502885       0.02841555      -0.04788822       0.02044365       0.05334108       0.01225058      -0.02681493
C        1.04642169      -0.64763810      -1.31451465      -0.02757476      -0.02800780       0.03125532      -0.04685494       0.01685866      -0.00548825
N        1.39174230      -1.11957243      -2.33309722      -0.07148985       0.05312429      -0.01812343      -0.03814093       0.00423825      -0.04214505
C        0.54347814       2.04394719       1.25448838      -0.00147923       0.00276015      -0.01032955      -0.02547723      -0.00371781      -0.01892358
N        0.30639508       2.55488954       2.28386659      -0.03728087       0.00948432      -0.03553795      -0.06168484       0.00384546      -0.01099196
11
Properties=species:S:1:pos:R:3:mp2_forces:R:3:forces:R:3 R1=CN R2=H R3=CN R4=H lg=Br nu=Br rxn-id=1263 mp2_energy=-147186.40560807893 energy=-147186.3601891759 free_energy=-147186.40562341665 pbc="F F F"
C        0.52915510      -0.03907141      -0.09101332       0.06994833       0.02956501      -0.03121554      -0.02195337       0.00399141      -0.01777342
C        0.83117121       1.46196062      -0.04741856       0.01884330      -0.02154965       0.01684973       0.00131130      -0.00078071      -0.00527674
H        1.89360148       1.59537113      -0.26653911      -0.01548764       0.00798808       0.00758226       0.02581444      -0.06830851       0.05375889
Br      -1.43071608      -0.31342501      -0.12682072       0.05741761       0.00842887       0.01589073      -0.00368895      -0.01615057       0.08174560
Br       3.53735078      -0.25210709       0.92939748      -0.02065783       0.01195734       0.02661614       0.06215983       0.01163132       0.04545785
H        0.91123630      -0.54355520       0.79469905      -0.00065458      -0.02586239      -0.02343134       0.05024388       0.01384381      -0.03698731
H        0.22080324       1.97596185      -0.79441343       0.02841555      -0.04788822       0.02044365       0.06394284       0.03384381      -0.03815617
C        1.07554368      -0.65733407      -1.29161205      -0.02757476      -0.02800780       0.03125532      -0.06524650       0.02572753      -0.00983510
N        1.41950479      -1.13706590      -2.30711727      -0.07148985       0.05312429      -0.01812343      -0.02243461       0.00114561      -0.04177382
C        0.55890042       2.04287181       1.26501447      -0.00147923       0.00276015      -0.01032955      -0.03170266      -0.00518181      -0.02388156
N        0.33244440       2.55247952       2.29739189      -0.03728087       0.00948432      -0.03553795      -0.05844620       0.00023811      -0.00727822
11
Properties=species:S:1:pos:R:3:mp2_forces:R:3:forces:R:3 R1=CN R2=H R3=CN R4=H lg=Br nu=Br rxn-id=1263 mp2_energy=-147186.40560807893 energy=-147186.33534676002 free_energy=-147186.40562341665 pbc="F F F"
C        0.54124021      -0.04023232      -0.08270663       0.06994833       0.02956501      -0.03121554      -0.06991221       0.01067873      -0.03246831
C        0.83369687       1.46437150      -0.04150786       0.01884330      -0.02154965       0.01684973      -0.02373584      -0.00060896      -0.01189187
H        1.88622518       1.62722410      -0.28448407      -0.01548764       0.00798808       0.00758226       0.02127318      -0.12626376       0.06234270
Br      -1.42610921      -0.30120751      -0.17172615       0.05741761       0.00842887       0.01589073      -0.01091869      -0.02897006       0.09403860
Br       3.51474425      -0.25699776       0.88406523      -0.02065783       0.01195734       0.02661614       0.11769437       0.00582590       0.06924214
H        0.88221240      -0.54919920       0.81614451      -0.00065458      -0.02586239      -0.02343134       0.07640973       0.04051264      -0.05722083
H        0.19718943       1.96407036      -0.77547510       0.02841555      -0.04788822       0.02044365       0.06522107       0.07510088      -0.04946712
C        1.10375768      -0.66717315      -1.27146997      -0.02757476      -0.02800780       0.03125532      -0.08992951       0.03706118      -0.01453777
N        1.43065964      -1.15129706      -2.29084233      -0.07148985       0.05312429      -0.01812343       0.00260756      -0.00128956      -0.03020633
C        0.57097429       2.04296961       1.27386799      -0.00147923       0.00276015      -0.01032955      -0.03971734      -0.00779524      -0.02805629
N        0.34440457       2.55355767       2.30570284      -0.03728087       0.00948432      -0.03553795      -0.04899232      -0.00425175      -0.00177490
11
Properties=species:S:1:pos:R:3:mp2_forces:R:3:forces:R:3 R1=CN R2=H R3=CN R4=H lg=Br nu=Br rxn-id=1263 mp2_energy=-147186.40560807893 energy=-147186.24366253059 free_energy=-147186.40562341665 pbc="F F F"
C        0.58598613      -0.04705918      -0.06655894       0.06994833       0.02956501      -0.03121554      -0.36776786       0.01562484      -0.08983941
C        0.84871638       1.46728797      -0.03387717       0.01884330      -0.02154965       0.01684973      -0.11113746      -0.01403670      -0.02371921
H        1.87328494       1.70928549      -0.32517797      -0.01548764       0.00798808       0.00758226      -0.00517348      -0.30938403       0.06978656
Br      -1.41602653      -0.28322952      -0.23336849       0.05741761       0.00842887       0.01589073       0.11021366      -0.03547436       0.08467169
Br       3.43447530      -0.25634371       0.83802753      -0.02065783       0.01195734       0.02661614       0.32634707      -0.02794454       0.13668156
H        0.83253706      -0.57279692       0.85154477      -0.00065458      -0.02586239      -0.02343134       0.18078484       0.12684782      -0.11691227
H        0.15544795       1.92196551      -0.74332659       0.02841555      -0.04788822       0.02044365       0.04836573       0.21180864      -0.05385214
C        1.15490135      -0.68475618      -1.24582835      -0.02757476      -0.02800780       0.03125532      -0.14093467       0.05628786      -0.00629741
N        1.43438543      -1.16521176      -2.28225226      -0.07148985       0.05312429      -0.01812343       0.04699018       0.00000178       0.02250414
C        0.60001994       2.04241593       1.28546300      -0.00147923       0.00276015      -0.01032955      -0.04949854      -0.01577892      -0.02773799
N        0.37526737       2.55452862       2.31692292      -0.03728087       0.00948432      -0.03553795      -0.03818947      -0.00795239       0.00471448
11
Properties=species:S:1:pos:R:3:mp2_forces:R:3:forces:R:3 R1=CN R2=H R3=CN R4=H lg=Br nu=Br rxn-id=1263 mp2_energy=-147186.40560807893 energy=-147186.0840361241 free_energy=-147186.40562341665 pbc="F F F"
C        0.66057943      -0.05017825      -0.04931253       0.06994833       0.02956501      -0.03121554      -1.02906332      -0.01961911      -0.19551005
C        0.87128333       1.47075086      -0.02882147       0.01884330      -0.02154965       0.01684973      -0.17050249      -0.03627314      -0.02499948
H        1.87447231       1.77222596      -0.33979746      -0.01548764       0.00798808       0.00758226      -0.02192177      -0.38634388       0.06238082
Br      -1.43771917      -0.27552771      -0.25193246       0.05741761       0.00842887       0.01589073       0.49188847       0.02066297       0.07437412
Br       3.36718684      -0.24966804       0.80922619      -0.02065783       0.01195734       0.02661614       0.50455833      -0.05936078       0.18281853
H        0.79613916      -0.59715428       0.87555590      -0.00065458      -0.02586239      -0.02343134       0.31057465       0.15587118      -0.12494923
H        0.14509089       1.88004683      -0.73167035       0.02841555      -0.04788822       0.02044365       0.03053996       0.29381562      -0.04901481
C        1.18204589      -0.69443428      -1.24008509      -0.02757476      -0.02800780       0.03125532      -0.09678785       0.04406829       0.02424529
N        1.42613786      -1.16933686      -2.28936865      -0.07148985       0.05312429      -0.01812343       0.04988244       0.00940547       0.06188540
C        0.61144475       2.04383764       1.28856293      -0.00147923       0.00276015      -0.01032955      -0.03261730      -0.01791301      -0.02004899
N        0.38233404       2.55552438       2.31921144      -0.03728087       0.00948432      -0.03553795      -0.03655111      -0.00431361       0.00881840
11
Properties=species:S:1:pos:R:3:mp2_forces:R:3:forces:R:3 R1=CN R2=H R3=CN R4=H lg=Br nu=Br rxn-id=1263 mp2_energy=-147186.40560807893 energy=-147185.89735645216 free_energy=-147186.40562341665 pbc="F F F"
C        0.74633141      -0.04843323      -0.03323934       0.06994833       0.02956501      -0.03121554      -1.21647663      -0.02653268      -0.23606284
C        0.88567655       1.47403524      -0.02656146       0.01884330      -0.02154965       0.01684973      -0.13199375      -0.02203543      -0.01791815
H        1.87666549       1.80477583      -0.34447941      -0.01548764       0.00798808       0.00758226      -0.00699984      -0.28955116       0.04676811
Br      -1.47865752      -0.27689226      -0.25805814       0.05741761       0.00842887       0.01589073       0.54698433       0.05005767       0.06008274
Br       3.32561702      -0.24407381       0.79329663      -0.02065783       0.01195734       0.02661614       0.46156522      -0.05228629       0.15591913
H        0.76979936      -0.60993725       0.88597156      -0.00065458      -0.02586239      -0.02343134       0.32760089       0.09093715      -0.03836069
H        0.14302256       1.85576053      -0.72785299       0.02841555      -0.04788822       0.02044365       0.02317463       0.24375810      -0.03759858
C        1.18973124      -0.69802640      -1.24153709      -0.02757476      -0.02800780       0.03125532       0.00296214       0.02089940       0.03076625
N        1.42192291      -1.17138069      -2.29475403      -0.07148985       0.05312429      -0.01812343       0.03332308       0.00057244       0.03955192
C        0.61416341       2.04469520       1.28893207      -0.00147923       0.00276015      -0.01032955      -0.00697089      -0.01380832      -0.01513318
N        0.38472288       2.55556310       2.31985064      -0.03728087       0.00948432      -0.03553795      -0.03316917      -0.00201086       0.01198529
11
Properties=species:S:1:pos:R:3:mp2_forces:R:3:forces:R:3 R1=CN R2=H R3=CN R4=H lg=Br nu=Br rxn-id=1263 mp2_energy=-147186.40560807893 energy=-147185.76165350442 free_energy=-147186.40562341665 pbc="F F F"
C        0.83046523      -0.04650987      -0.01703205       0.06994833       0.02956501      -0.03121554      -0.74946628      -0.00899122      -0.15945237
C        0.89482697       1.47578396      -0.02518053       0.01884330      -0.02154965       0.01684973      -0.06472595      -0.00207215      -0.00974598
H        1.87720264       1.82515586      -0.34760060      -0.01548764       0.00798808       0.00758226       0.00292018      -0.14161628       0.02564539
Br      -1.51638359      -0.27990792      -0.26250082       0.05741761       0.00842887       0.01589073       0.29962198       0.03574032       0.02850314
Br       3.29406200      -0.24012891       0.78213621      -0.02065783       0.01195734       0.02661614       0.26664033      -0.02514998       0.08421354
H        0.74695691      -0.61599738       0.88867498      -0.00065458      -0.02586239      -0.02343134       0.20004794       0.02354661       0.02178543
H        0.14144243       1.83905246      -0.72526174       0.02841555      -0.04788822       0.02044365       0.01258445       0.13713756      -0.02029293
C        1.18945642      -0.69956357      -1.24335134      -0.02757476      -0.02800780       0.03125532       0.03230430       0.00650344       0.02297998
N        1.41952307      -1.17234432      -2.29742557      -0.07148985       0.05312429      -0.01812343       0.01734266      -0.01228273       0.00696200
C        0.61479574       2.04503886       1.28885762      -0.00147923       0.00276015      -0.01032955       0.00375863      -0.01061177      -0.01577361
N        0.38664750       2.55550707       2.32025230      -0.03728087       0.00948432      -0.03553795      -0.02102824      -0.00220380       0.01517540
11
Properties=species:S:1:pos:R:3:mp2_forces:R:3:forces:R:3 R1=CN R2=H R3=CN R4=H lg=Br nu=Br rxn-id=1263 mp2_energy=-147186.40560807893 energy=-147185.71509220364 free_energy=-147186.40562341665 pbc="F F F"
C        0.91631052      -0.04538927       0.00088882       0.06994833       0.02956501      -0.03121554       0.05174728       0.00115996       0.00799355
C        0.90220660       1.47640545      -0.02383555       0.01884330      -0.02154965       0.01684973       0.00398424       0.00338305       0.00297954
H        1.87688704       1.84186956      -0.35045839      -0.01548764       0.00798808       0.00758226       0.00002978       0.01330175      -0.00078511
Br      -1.55057099      -0.28335863      -0.26635275       0.05741761       0.00842887       0.01589073      -0.01923915       0.00295508      -0.00722625
Br       3.26385259      -0.23667628       0.77193332      -0.02065783       0.01195734       0.02661614      -0.01724310       0.00714145      -0.01147645
H        0.72390725      -0.61826991       0.88628876      -0.00065458      -0.02586239      -0.02343134      -0.01358462       0.00381854      -0.00190541
H        0.13992955       1.82372154      -0.72286981       0.02841555      -0.04788822       0.02044365      -0.00117452      -0.00571911       0.00199521
C        1.18551425      -0.70015704      -1.24480971      -0.02757476      -0.02800780       0.03125532      -0.00482347       0.00170838       0.01063394
N        1.41760955      -1.17270888      -2.29861384      -0.07148985       0.05312429      -0.01812343      -0.00025247      -0.01576602      -0.00429074
C        0.61476459       2.04517280       1.28874328      -0.00147923       0.00276015      -0.01032955       0.00366517      -0.00967598      -0.01707899
N        0.38858437       2.55547691       2.32065431      -0.03728087       0.00948432      -0.03553795      -0.00310914      -0.00230710       0.01916072
11
Properties=species:S:1:pos:R:3:mp2_forces:R:3:forces:R:3 R1=CN R2=H R3=CN R4=H lg=Br nu=Br rxn-id=1263 mp2_energy=-147186.40560807893 energy=-147185.7737843054 free_energy=-147186.40562341665 pbc="F F F"
C        1.00145457      -0.04498318       0.02002863       0.06994833       0.02956501      -0.03121554       0.82719413       0.00478140       0.18307074
C        0.90959771       1.47579435      -0.02194406       0.01884330      -0.02154965       0.01684973       0.07114683      -0.00259029       0.02030270
H        1.87620890       1.85716908      -0.35333094      -0.01548764       0.00798808       0.00758226      -0.00610233       0.15152406      -0.02680392
Br      -1.58219203      -0.28744719      -0.26946054       0.05741761       0.00842887       0.01589073      -0.30760303      -0.03468749      -0.03548864
Br       3.23070689      -0.23393054       0.76122817      -0.02065783       0.01195734       0.02661614      -0.32050742       0.03232610      -0.10928774
H        0.70221418      -0.61596668       0.87842602      -0.00065458      -0.02586239      -0.02343134      -0.20964776       0.02604285      -0.07490972
H        0.13884214       1.80668277      -0.72027982       0.02841555      -0.04788822       0.02044365      -0.01077272      -0.16081257       0.02551099
C        1.18160929      -0.69952797      -1.24489558      -0.02757476      -0.02800780       0.03125532      -0.04014843       0.00710589       0.00869147
N        1.41529063      -1.17231342      -2.29816711      -0.07148985       0.05312429      -0.01812343      -0.02157510      -0.01138382       0.00151203
C        0.61475002       2.04505655       1.28886413      -0.00147923       0.00276015      -0.01032955       0.00360332      -0.01060354      -0.01559671
N        0.39051302       2.55555248       2.32109956      -0.03728087       0.00948432      -0.03553795       0.01441251      -0.00170260       0.02299880
11
Properties=species:S:1:pos:R:3:mp2_forces:R:3:forces:R:3 R1=CN R2=H R3=CN R4=H lg=Br nu=Br rxn-id=1263 mp2_energy=-147186.40560807893 energy=-147185.91754973226 free_energy=-147186.40562341665 pbc="F F F"
C        1.08454873      -0.04535702       0.04001527       0.06994833       0.02956501      -0.03121554       1.22309892      -0.00421730       0.29249800
C        0.91886326       1.47408117      -0.01931930       0.01884330      -0.02154965       0.01684973       0.13515011      -0.02198771       0.04039308
H        1.87552854       1.87422403      -0.35648318      -0.01548764       0.00798808       0.00758226      -0.01012197       0.25285679      -0.04640377
Br      -1.61597183      -0.29211896      -0.27227115       0.05741761       0.00842887       0.01589073      -0.49984615      -0.06398628      -0.04833539
Br       3.19400777      -0.23173812       0.74961781      -0.02065783       0.01195734       0.02661614      -0.53953156       0.03881701      -0.17542635
H        0.68264609      -0.60977027       0.86589217      -0.00065458      -0.02586239      -0.02343134      -0.28555261       0.09442033      -0.18257103
H        0.13850876       1.78554777      -0.71700006       0.02841555      -0.04788822       0.02044365      -0.00615259      -0.30566678       0.04928735
C        1.18115650      -0.69784614      -1.24309041      -0.02757476      -0.02800780       0.03125532      -0.00753433       0.02327723       0.03078881
N        1.41181134      -1.17131877      -2.29656347      -0.07148985       0.05312429      -0.01812343      -0.05023885       0.00139098       0.02522977
C        0.61543773       2.04473614       1.28922904      -0.00147923       0.00276015      -0.01032955       0.01489091      -0.01359299      -0.01043196
N        0.39245842       2.55564643       2.32154171      -0.03728087       0.00948432      -0.03553795       0.02583812      -0.00131128       0.02497149
11
Properties=species:S:1:pos:R:3:mp2_forces:R:3:forces:R:3 R1=CN R2=H R3=CN R4=H lg=Br nu=Br rxn-id=1263 mp2_energy=-147186.40560807893 energy=-147186.10596381396 free_energy=-147186.40562341665 pbc="F F F"
C        1.16924383      -0.04525082       0.06061448       0.06994833       0.02956501      -0.03121554       0.95062272       0.00267083       0.22791573
C        0.93388607       1.47090603      -0.01523363       0.01884330      -0.02154965       0.01684973       0.16575590      -0.03225338       0.04686058
H        1.87462078       1.90001476      -0.36142032      -0.01548764       0.00798808       0.00758226      -0.01351702       0.29191430      -0.05940211
Br      -1.66277608      -0.29885119      -0.27495284       0.05741761       0.00842887       0.01589073      -0.52469904      -0.06765997      -0.03841580
Br       3.15430383      -0.23157230       0.73894137      -0.02065783       0.01195734       0.02661614      -0.44534467       0.00448374      -0.11969872
H        0.66241702      -0.59628523       0.84398828      -0.00065458      -0.02586239      -0.02343134      -0.22156985       0.15441775      -0.24323767
H        0.13913423       1.75043201      -0.71113116       0.02841555      -0.04788822       0.02044365       0.00128562      -0.38963000       0.06877939
C        1.18898876      -0.69367765      -1.23818781      -0.02757476      -0.02800780       0.03125532       0.08875738       0.04898332       0.06451125
N        1.40529150      -1.16917840      -2.29316312      -0.07148985       0.05312429      -0.01812343      -0.07218916       0.00782368       0.03424800
C        0.61866799       2.04391385       1.29011901      -0.00147923       0.00276015      -0.01032955       0.04150225      -0.01694400      -0.00482229
N        0.39521739       2.55563519       2.32199418      -0.03728087       0.00948432      -0.03553795       0.02939589      -0.00380628       0.02326164
11
Properties=species:S:1:pos:R:3:mp2_forces:R:3:forces:R:3 R1=CN R2=H R3=CN R4=H lg=Br nu=Br rxn-id=1263 mp2_energy=-147186.40560807893 energy=-147186.2576387815 free_energy=-147186.40562341665 pbc="F F F"
C        1.24150917      -0.03990377       0.07431723       0.06994833       0.02956501      -0.03121554       0.31673226       0.02332938       0.05506703
C        0.95707788       1.46812486      -0.01070919       0.01884330      -0.02154965       0.01684973       0.10091238      -0.00911674       0.02055958
H        1.86789113       1.94353099      -0.37868374      -0.01548764       0.00798808       0.00758226      -0.02738469       0.19417717      -0.07097376
Br      -1.73878764      -0.30669854      -0.27607239       0.05741761       0.00842887       0.01589073      -0.32630173      -0.02922393      -0.00590417
Br       3.12985743      -0.24155351       0.75136008      -0.02065783       0.01195734       0.02661614      -0.10706206      -0.03972811       0.04636389
H        0.63827152      -0.57140571       0.80514794      -0.00065458      -0.02586239      -0.02343134      -0.10752378       0.11464875      -0.16902923
H        0.13392800       1.68365708      -0.69553537       0.02841555      -0.04788822       0.02044365      -0.02182050      -0.28946370       0.06547738
C        1.21905681      -0.68243877      -1.23268660      -0.02757476      -0.02800780       0.03125532       0.12824377       0.05774166       0.04785625
N        1.39451236      -1.16489015      -2.29061201      -0.07148985       0.05312429      -0.01812343      -0.04605124      -0.00162199      -0.00371741
C        0.63187198       2.04289609       1.29209641      -0.00147923       0.00276015      -0.01032955       0.05702258      -0.01369839      -0.00575210
N        0.40380669       2.55476768       2.32294608      -0.03728087       0.00948432      -0.03553795       0.03323301      -0.00704411       0.02005253
11
Properties=species:S:1:pos:R:3:mp2_forces:R:3:forces:R:3 R1=CN R2=H R3=CN R4=H lg=Br nu=Br rxn-id=1263 mp2_energy=-147186.40560807893 energy=-147186.34008293957 free_energy=-147186.40562341665 pbc="F F F"
C        1.28422205      -0.03280689       0.07690707       0.06994833       0.02956501      -0.03121554       0.06802316       0.01093219      -0.00240670
C        0.97201061       1.46544683      -0.01220782       0.01884330      -0.02154965       0.01684973       0.02255082      -0.00002898      -0.00182641
H        1.84171598       1.98140040      -0.42588522      -0.01548764       0.00798808       0.00758226      -0.04095945       0.06749212      -0.07101352
Br      -1.82704744      -0.30806820      -0.26450773       0.05741761       0.00842887       0.01589073      -0.12587375       0.00492509       0.01533088
Br       3.11386543      -0.25921177       0.81349900      -0.02065783       0.01195734       0.02661614      -0.02720287      -0.02801827       0.08939307
H        0.60773074      -0.55072870       0.75336941      -0.00065458      -0.02586239      -0.02343134      -0.04368643       0.03510741      -0.07904546