14
Properties=species:S:1:pos:R:3:mp2_forces:R:3:forces:R:3 R1=H R2=H R3=CH3 R4=NH2 lg=F nu=F rxn-id=150 mp2_energy=-10143.674123910576 energy=-10143.674123704342 free_energy=-10143.674123704342 pbc="F F F"
C        0.59630137       0.00050636      -0.13869873       0.00059946       0.01121156       0.02380169       0.00056700       0.01120029       0.02380052
C        1.00578043       1.44524445      -0.05245630      -0.00079880      -0.00313025      -0.01815589      -0.00079468      -0.00313482      -0.01811496
H        2.09592900       1.38481772      -0.06724465      -0.00467895       0.01318515      -0.02628533      -0.00467761       0.01319292      -0.02629408
F       -0.82460740      -0.10721828      -0.09671529       0.00683891      -0.01005095       0.00026681       0.00686381      -0.01004162       0.00026687
F        2.84805535       0.01765262       1.44129900      -0.05771078      -0.00109692       0.08158254      -0.05770070      -0.00110178       0.08158783
H        0.90564190      -0.42689856      -1.09524064       0.00421930      -0.00673877      -0.02767624       0.00422475      -0.00673946      -0.02767673
H        1.06181437      -0.51983065       0.69773096       0.01261149       0.01151620      -0.01569873       0.01260091       0.01151811      -0.01570403
C        0.62126933       2.01658582       1.30921078       0.01225570      -0.00953921       0.00187034       0.01226310      -0.00954403       0.00187594
H       -0.45306657       1.90636349       1.49697945       0.02166935      -0.00482734       0.01591912       0.02167673      -0.00482831       0.01591712
H        1.21751707       1.45742247       2.03378519       0.03018066      -0.01596739      -0.02396757       0.03016720      -0.01595394      -0.02397749
H        0.87449616       3.08235388       1.37125409       0.01767746      -0.00153960       0.00214233       0.01767669      -0.00154477       0.00214162
N        0.48547410       2.18058102      -1.21883170      -0.01230486       0.00694278      -0.00602853      -0.01230059       0.00694074      -0.00605749
H        0.76056007       3.15306944      -1.12605173      -0.02174835       0.01268355       0.00407126      -0.02174664       0.01268351       0.00406858
H       -0.52784552       2.16316394      -1.15296048      -0.00881059      -0.00264883      -0.01184180      -0.00881999      -0.00264684      -0.01183370
14
Properties=species:S:1:pos:R:3:mp2_forces:R:3:forces:R:3 R1=H R2=H R3=CH3 R4=NH2 lg=F nu=F rxn-id=150 mp2_energy=-10143.674123910576 energy=-10143.712617385745 free_energy=-10143.674123704342 pbc="F F F"
C        0.60993021       0.01495626      -0.15243806       0.00059946       0.01121156       0.02380169       0.00370813      -0.00398686      -0.01693386
C        1.02135651       1.46137443      -0.06049753      -0.00079880      -0.00313025      -0.01815589      -0.00207811      -0.00217294      -0.01034718
H        2.10971710       1.41617097      -0.10690666      -0.00467895       0.01318515      -0.02628533      -0.00181338       0.00882020      -0.02027853
F       -0.81578190      -0.07529032      -0.16680303       0.00683891      -0.01005095       0.00026681       0.00461703      -0.01236254       0.03559476
F        2.73745003      -0.06018639       1.53950689      -0.05771078      -0.00109692       0.08158254      -0.04155607       0.03675370       0.10226887
H        0.95218420      -0.42735992      -1.09088786       0.00421930      -0.00673877      -0.02767624      -0.03157960       0.01169787      -0.03589161
H        1.03404619      -0.49803361       0.71204444       0.01261149       0.01151620      -0.01569873       0.04025292      -0.00479669      -0.02831222
C        0.66934355       2.02780118       1.31217377       0.01225570      -0.00953921       0.00187034       0.00725689      -0.01118158      -0.00573730
H       -0.40160985       1.92411725       1.52092778       0.02166935      -0.00482734       0.01591912       0.00619433      -0.00266557      -0.00329433
H        1.27683221       1.45118573       2.01608141       0.03018066      -0.01596739      -0.02396757       0.01105661      -0.02691796      -0.01853609
H        0.92758767       3.09320101       1.37117215       0.01767746      -0.00153960       0.00214233       0.01806327      -0.01443062      -0.00001642
N        0.46760924       2.19363607      -1.21271876      -0.01230486       0.00694278      -0.00602853      -0.00997916       0.00240340      -0.00436550
H        0.61520413       3.18843156      -1.07577783      -0.02174835       0.01268355       0.00407126       0.00846866       0.00022775      -0.00878021
H       -0.53654961       2.04380949      -1.20381676      -0.00881059      -0.00264883      -0.01184180      -0.01261154       0.01861183       0.01462963
14
Properties=species:S:1:pos:R:3:mp2_forces:R:3:forces:R:3 R1=H R2=H R3=CH3 R4=NH2 lg=F nu=F rxn-id=150 mp2_energy=-10143.674123910576 energy=-10143.687974792614 free_energy=-10143.674123704342 pbc="F F F"
C        0.60401215       0.01598987      -0.13787436       0.00059946       0.01121156       0.02380169       0.00250305      -0.00527880      -0.01770776
C        1.02241790       1.46019208      -0.04759204      -0.00079880      -0.00313025      -0.01815589      -0.00300482      -0.00308108      -0.01082187
H        2.11062314       1.40382782      -0.08123209      -0.00467895       0.01318515      -0.02628533      -0.00271981       0.00691634      -0.01943973
F       -0.82210658      -0.06426597      -0.20000706       0.00683891      -0.01005095       0.00026681       0.00180758      -0.01372533       0.04251518
F        2.79331092      -0.06992635       1.42952686      -0.05771078      -0.00109692       0.08158254      -0.04425078       0.04308130       0.11105905
H        0.97782921      -0.43926806      -1.05736098       0.00421930      -0.00673877      -0.02767624      -0.03839421       0.01358337      -0.04214296
H        0.99106680      -0.50110819       0.73819529       0.01261149       0.01151620      -0.01569873       0.04932641      -0.00598769      -0.03018744
C        0.65795980       2.03610091       1.31806664       0.01225570      -0.00953921       0.00187034       0.00697212      -0.01217355      -0.00679678
H       -0.41411123       1.93155010       1.52068862       0.02166935      -0.00482734       0.01591912       0.00578304      -0.00388237      -0.00131616
H        1.25725594       1.47193528       2.03659254       0.03018066      -0.01596739      -0.02396757       0.01284664      -0.02898312      -0.02170984
H        0.91352508       3.10226093       1.37292881       0.01767746      -0.00153960       0.00214233       0.01842021      -0.01561893      -0.00065985
N        0.47875336       2.18812018      -1.20723054      -0.01230486       0.00694278      -0.00602853      -0.00861341       0.00311778      -0.00565561
H        0.62162786       3.18373443      -1.07167899      -0.02174835       0.01268355       0.00407126       0.01116553       0.00081721      -0.00846147
H       -0.52484470       2.03467069      -1.21096277      -0.00881059      -0.00264883      -0.01184180      -0.01184155       0.02121486       0.01132524
14
Properties=species:S:1:pos:R:3:mp2_forces:R:3:forces:R:3 R1=H R2=H R3=CH3 R4=NH2 lg=F nu=F rxn-id=150 mp2_energy=-10143.674123910576 energy=-10143.664565459158 free_energy=-10143.674123704342 pbc="F F F"
C        0.60067797       0.01636953      -0.12449178       0.00059946       0.01121156       0.02380169       0.00039784      -0.00605753      -0.01594435
C        1.02305989       1.45939553      -0.03608426      -0.00079880      -0.00313025      -0.01815589      -0.00456499      -0.00397345      -0.01120484
H        2.11122543       1.39504161      -0.06005231      -0.00467895       0.01318515      -0.02628533      -0.00408095       0.00322109      -0.01719788
F       -0.82447685      -0.05737000      -0.22745441       0.00683891      -0.01005095       0.00026681      -0.00206833      -0.01489571       0.04570859
F        2.84114273      -0.08212045       1.32806011      -0.05771078      -0.00109692       0.08158254      -0.03910868       0.04575080       0.11439807
H        1.00177153      -0.45033931      -1.02584669       0.00421930      -0.00673877      -0.02767624      -0.04208015       0.01459084      -0.04671232
H        0.95358249      -0.50334497       0.76173400       0.01261149       0.01151620      -0.01569873       0.05455887      -0.00694113      -0.03070075
C        0.64652313       2.04360328       1.32300273       0.01225570      -0.00953921       0.00187034       0.00609654      -0.01229611      -0.00723180
H       -0.42656384       1.93679785       1.51917043       0.02166935      -0.00482734       0.01591912       0.00450009      -0.00324184       0.00055345
H        1.23796325       1.49142533       2.05615261       0.03018066      -0.01596739      -0.02396757       0.01274950      -0.02932421      -0.02305526
H        0.89808810       3.11076597       1.37373707       0.01767746      -0.00153960       0.00214233       0.01862952      -0.01541407      -0.00149685
N        0.48709578       2.18233799      -1.20223749      -0.01230486       0.00694278      -0.00602853      -0.00702279       0.00377012      -0.00656764
H        0.63430201       3.17804577      -1.07278292      -0.02174835       0.01268355       0.00407126       0.01271449       0.00194532      -0.00702611
H       -0.51707197       2.03320557      -1.21084713      -0.00881059      -0.00264883      -0.01184180      -0.01072095       0.02286588       0.00647769
14
Properties=species:S:1:pos:R:3:mp2_forces:R:3:forces:R:3 R1=H R2=H R3=CH3 R4=NH2 lg=F nu=F rxn-id=150 mp2_energy=-10143.674123910576 energy=-10143.638520790653 free_energy=-10143.674123704342 pbc="F F F"
C        0.59973683       0.01817019      -0.10974313       0.00059946       0.01121156       0.02380169      -0.00313172      -0.00685291      -0.01357371
C        1.02527832       1.46067767      -0.02412953      -0.00079880      -0.00313025      -0.01815589      -0.00655183      -0.00572221      -0.01093399
H        2.11345242       1.38938064      -0.04064991      -0.00467895       0.01318515      -0.02628533      -0.00574748      -0.00350977      -0.01253585
F       -0.82328928      -0.04956664      -0.25703112       0.00683891      -0.01005095       0.00026681      -0.00745395      -0.01547312       0.04684076
F        2.88125226      -0.10959266       1.21954829      -0.05771078      -0.00109692       0.08158254      -0.02411193       0.05101547       0.11384609
H        1.03011309      -0.46204950      -0.98929075       0.00421930      -0.00673877      -0.02767624      -0.04501420       0.01603663      -0.05185046
H        0.91430264      -0.50218158       0.78820364       0.01261149       0.01151620      -0.01569873       0.05689847      -0.00976989      -0.03176277
C        0.63629739       2.05344116       1.32798088       0.01225570      -0.00953921       0.00187034       0.00397835      -0.01234240      -0.00684391
H       -0.43757999       1.94231659       1.51737285       0.02166935      -0.00482734       0.01591912       0.00168997      -0.00013652       0.00126274
H        1.21974513       1.51451380       2.07693836       0.03018066      -0.01596739      -0.02396757       0.00926892      -0.02912583      -0.02195311
H        0.88179123       3.12211866       1.37383745       0.01767746      -0.00153960       0.00214233       0.01935237      -0.01474291      -0.00225554
N        0.49609618       2.17814385      -1.19675680      -0.01230486       0.00694278      -0.00602853      -0.00539855       0.00304285      -0.00666927
H        0.63714600       3.17482197      -1.06846522      -0.02174835       0.01268355       0.00407126       0.01668270       0.00213797      -0.00727331
H       -0.50702255       2.02361956      -1.21575506      -0.00881059      -0.00264883      -0.01184180      -0.01046112       0.02544264       0.00370234
14
Properties=species:S:1:pos:R:3:mp2_forces:R:3:forces:R:3 R1=H R2=H R3=CH3 R4=NH2 lg=F nu=F rxn-id=150 mp2_energy=-10143.674123910576 energy=-10143.600707777716 free_energy=-10143.674123704342 pbc="F F F"
C        0.60218971       0.02352451      -0.08854407       0.00059946       0.01121156       0.02380169      -0.01050707      -0.00892207      -0.01229088
C        1.03283945       1.46590149      -0.00745445      -0.00079880      -0.00313025      -0.01815589      -0.01261414      -0.00965655      -0.01009833
H        2.12110710       1.38858810      -0.01815910      -0.00467895       0.01318515      -0.02628533      -0.01207265      -0.02196850      -0.00346598
F       -0.81661506      -0.03330248      -0.29561854       0.00683891      -0.01005095       0.00026681      -0.01558399      -0.02115874       0.04660835
F        2.92236465      -0.16795424       1.06812120      -0.05771078      -0.00109692       0.08158254       0.00663780       0.06393791       0.11154943
H        1.06963183      -0.47715690      -0.93537997       0.00421930      -0.00673877      -0.02767624      -0.04759113       0.01828636      -0.05758920
H        0.86039276      -0.49588842       0.82556606       0.01261149       0.01151620      -0.01569873       0.05910897      -0.01342607      -0.03369148
C        0.62493760       2.06920048       1.33463736       0.01225570      -0.00953921       0.00187034      -0.00034493      -0.01212069      -0.00610946
H       -0.45002688       1.94873536       1.51139922       0.02166935      -0.00482734       0.01591912      -0.00312317       0.00861341       0.00469076
H        1.19627170       1.54900295       2.10620067       0.03018066      -0.01596739      -0.02396757       0.00320072      -0.02903999      -0.01996031
H        0.85881078       3.14064642       1.37462332       0.01767746      -0.00153960       0.00214233       0.02251080      -0.01463703      -0.00441572
N        0.51050231       2.17484769      -1.18856937      -0.01230486       0.00694278      -0.00602853      -0.00387237       0.00258982      -0.00629046
H        0.62206185       3.17436425      -1.05412186      -0.02174835       0.01268355       0.00407126       0.02668503       0.00286032      -0.00826321
H       -0.48714815       1.99330450      -1.23064050      -0.00881059      -0.00264883      -0.01184180      -0.01243388       0.03464183      -0.00067349
14
Properties=species:S:1:pos:R:3:mp2_forces:R:3:forces:R:3 R1=H R2=H R3=CH3 R4=NH2 lg=F nu=F rxn-id=150 mp2_energy=-10143.674123910576 energy=-10143.556047701642 free_energy=-10143.674123704342 pbc="F F F"
C        0.61290820       0.03425283      -0.06798135       0.00059946       0.01121156       0.02380169      -0.03053723      -0.00938727      -0.02451410
C        1.05104212       1.47773884       0.00738002      -0.00079880      -0.00313025      -0.01815589      -0.03763970      -0.01767561      -0.01039125
H        2.13946512       1.41094762      -0.00771826      -0.00467895       0.01318515      -0.02628533      -0.03359117      -0.07776129       0.00839602
F       -0.80229823      -0.00097880      -0.32864419       0.00683891      -0.01005095       0.00026681      -0.02816021      -0.04633568       0.04372688
F        2.92784764      -0.25362582       0.93457972      -0.05771078      -0.00109692       0.08158254       0.07319240       0.07333978       0.12375439
H        1.10594883      -0.48899955      -0.88377385       0.00421930      -0.00673877      -0.02767624      -0.04410189       0.02359230      -0.05255252
H        0.81059637      -0.48444387       0.85980093       0.01261149       0.01151620      -0.01569873       0.07692941      -0.01231805      -0.03193812
C        0.62075101       2.08536590       1.34073611       0.01225570      -0.00953921       0.00187034      -0.00715781      -0.00942713      -0.00760860
H       -0.45464618       1.94568520       1.49723489       0.02166935      -0.00482734       0.01591912      -0.01247469       0.02818880       0.02190162
H        1.17932333       1.58233228       2.13334277       0.03018066      -0.01596739      -0.02396757      -0.00034358      -0.02965933      -0.02520663
H        0.83433933       3.16106128       1.38049735       0.01767746      -0.00153960       0.00214233       0.02955163      -0.01568550      -0.01259463
N        0.52372551       2.17249300      -1.18041782      -0.01230486       0.00694278      -0.00602853      -0.00418000       0.01246186      -0.00755665
H        0.57900412       3.17536100      -1.03778607      -0.02174835       0.01268355       0.00407126       0.04099026       0.01248126      -0.00104485
H       -0.46068751       1.93662381      -1.24519031      -0.00881059      -0.00264883      -0.01184180      -0.02247742       0.06818587      -0.02437156
14
Properties=species:S:1:pos:R:3:mp2_forces:R:3:forces:R:3 R1=H R2=H R3=CH3 R4=NH2 lg=F nu=F rxn-id=150 mp2_energy=-10143.674123910576 energy=-10143.446594757417 free_energy=-10143.674123704342 pbc="F F F"
C        0.64613164       0.04515246      -0.04176850       0.00059946       0.01121156       0.02380169      -0.22082986       0.01717784      -0.09866425
C        1.08820553       1.49710929       0.02403082      -0.00079880      -0.00313025      -0.01815589      -0.11379342      -0.03628787      -0.01844045
H        2.17647247       1.49257815      -0.00869313      -0.00467895       0.01318515      -0.02628533      -0.08837925      -0.27253470       0.02038857
F       -0.77179628       0.05035984      -0.37041187       0.00683891      -0.01005095       0.00026681      -0.02734586      -0.09446568       0.03655231
F        2.86275555      -0.34975001       0.78005338      -0.05771078      -0.00109692       0.08158254       0.34662825       0.01286659       0.20343272
H        1.14921609      -0.50997276      -0.82590956       0.00421930      -0.00673877      -0.02767624      -0.01806468       0.05521870       0.02533950
H        0.73454241      -0.47360193       0.90031574       0.01261149       0.01151620      -0.01569873       0.17621623       0.01962279      -0.04620179
C        0.62474060       2.10014060       1.34915571       0.01225570      -0.00953921       0.00187034      -0.02426611      -0.00253185      -0.01237887
H       -0.44873686       1.92502801       1.47270938       0.02166935      -0.00482734       0.01591912      -0.03704736       0.06743580       0.06365970
H        1.16903098       1.61682795       2.16447649       0.03018066      -0.01596739      -0.02396757      -0.00309973      -0.03149746      -0.04771092
H        0.80503235       3.18171359       1.39339240       0.01767746      -0.00153960       0.00214233       0.02872060      -0.01126075      -0.02395170
N        0.53471707       2.16054303      -1.16985862      -0.01230486       0.00694278      -0.00602853      -0.01000652       0.05769416      -0.01550189
H        0.52514040       3.16468880      -1.03132980      -0.02174835       0.01268355       0.00407126       0.04604848       0.05453203       0.01245299
H       -0.42813229       1.85299668      -1.23410249      -0.00881059      -0.00264883      -0.01184180      -0.05478077       0.16403041      -0.09897591
14
Properties=species:S:1:pos:R:3:mp2_forces:R:3:forces:R:3 R1=H R2=H R3=CH3 R4=NH2 lg=F nu=F rxn-id=150 mp2_energy=-10143.674123910576 energy=-10143.173810385717 free_energy=-10143.674123704342 pbc="F F F"
C        0.73467605       0.03834880      -0.01293616       0.00059946       0.01121156       0.02380169      -1.09818254       0.09401529      -0.29749122
C        1.12892347       1.51007561       0.03497731      -0.00079880      -0.00313025      -0.01815589      -0.13881987      -0.06145009      -0.02670725
H        2.21263820       1.59634046      -0.01221293      -0.00467895       0.01318515      -0.02628533      -0.11407011      -0.39979591       0.02272940
F       -0.76231113       0.08654523      -0.37922907       0.00683891      -0.01005095       0.00026681       0.31767178      -0.10048574       0.09348595
F        2.73469097      -0.35727295       0.68781118      -0.05771078      -0.00109692       0.08158254       0.72355786      -0.10337872       0.31794831
H        1.15269278      -0.52857546      -0.83192449       0.00421930      -0.00673877      -0.02767624       0.07010536       0.07203782       0.14813295
H        0.66750169      -0.48563075       0.92489586       0.01261149       0.01151620      -0.01569873       0.35109743       0.05578680      -0.09350406
C        0.63251669       2.10247901       1.35365453       0.01225570      -0.00953921       0.00187034      -0.02855504      -0.00238543      -0.00679254
H       -0.43859784       1.90297652       1.44657567       0.02166935      -0.00482734       0.01591912      -0.04105086       0.08066796       0.07977449
H        1.16474861       1.63219400       2.18465546       0.03018066      -0.01596739      -0.02396757      -0.00050166      -0.03501796      -0.05413225
H        0.79312279       3.18695541       1.39959583       0.01767746      -0.00153960       0.00214233       0.01186891      -0.00058011      -0.01746697
N        0.54405111       2.13824564      -1.16174982      -0.01230486       0.00694278      -0.00602853      -0.01923213       0.08664207      -0.02115932
H        0.50810019       3.14262869      -1.03279948      -0.02174835       0.01268355       0.00407126       0.01720433       0.08431358      -0.00161938
H       -0.40543391       1.78850350      -1.19925395      -0.00881059      -0.00264883      -0.01184180      -0.05109346       0.22963045      -0.14319811
14
Properties=species:S:1:pos:R:3:mp2_forces:R:3:forces:R:3 R1=H R2=H R3=CH3 R4=NH2 lg=F nu=F rxn-id=150 mp2_energy=-10143.674123910576 energy=-10142.92917919186 free_energy=-10143.674123704342 pbc="F F F"
C        0.84970359       0.02769291       0.01990444       0.00059946       0.01121156       0.02380169      -0.68995825       0.06346034      -0.19108434
C        1.14445171       1.51723764       0.03777316      -0.00079880      -0.00313025      -0.01815589      -0.05808148      -0.02381419      -0.00895098
H        2.22433497       1.63831810      -0.01380684      -0.00467895       0.01318515      -0.02628533      -0.04927205      -0.17684909       0.01328656
F       -0.79674837       0.09799746      -0.38716482       0.00683891      -0.01005095       0.00026681       0.25002275      -0.04724793       0.07994615
F        2.65945134      -0.34647122       0.65392518      -0.05771078      -0.00109692       0.08158254       0.36487863      -0.06214005       0.15095281
H        1.14431953      -0.53564687      -0.84860674       0.00421930      -0.00673877      -0.02767624       0.05142124       0.02612280       0.05779884
H        0.63211537      -0.49202427       0.93321038       0.01261149       0.01151620      -0.01569873       0.17845859       0.00660420      -0.01987859
C        0.63496609       2.10205670       1.35439935       0.01225570      -0.00953921       0.00187034      -0.01172457       0.00015675      -0.00241586
H       -0.43472379       1.89498526       1.43736667       0.02166935      -0.00482734       0.01591912      -0.01973112       0.03936375       0.03079134
H        1.16378010       1.63629520       2.19022030       0.03018066      -0.01596739      -0.02396757      -0.00375863      -0.01348642      -0.02488269
H        0.79203509       3.18713511       1.40069754       0.01767746      -0.00153960       0.00214233       0.00302382       0.00172830      -0.00966792
N        0.54694645       2.12862395      -1.15928136      -0.01230486       0.00694278      -0.00602853      -0.00221117       0.04204661      -0.00675372
H        0.50595660       3.13382543      -1.03191944      -0.02174835       0.01268355       0.00407126      -0.00002551       0.03816437      -0.00153445
H       -0.39926902       1.76378832      -1.18465788      -0.00881059      -0.00264883      -0.01184180      -0.01304223       0.10589056      -0.06760715
14
Properties=species:S:1:pos:R:3:mp2_forces:R:3:forces:R:3 R1=H R2=H R3=CH3 R4=NH2 lg=F nu=F rxn-id=150 mp2_energy=-10143.674123910576 energy=-10142.961503975095 free_energy=-10143.674123704342 pbc="F F F"
C        0.97119641       0.01454806       0.05504180       0.00059946       0.01121156       0.02380169       1.11512599      -0.12757868       0.32946452
C        1.15024677       1.51962246       0.03864766      -0.00079880      -0.00313025      -0.01815589       0.05584229       0.02703608       0.00767268
H        2.22921350       1.65664188      -0.01434788      -0.00467895       0.01318515      -0.02628533       0.04460785       0.17004130       0.00257238
F       -0.85008149       0.10618015      -0.39968358       0.00683891      -0.01005095       0.00026681      -0.49465826       0.08312737      -0.09259492
F        2.61141397      -0.33636119       0.63385648      -0.05771078      -0.00109692       0.08158254      -0.43821436       0.09164035      -0.19334210
H        1.13240896      -0.53511771      -0.85430817       0.00421930      -0.00673877      -0.02767624      -0.11707256       0.00977432      -0.05882614
H        0.60988066      -0.49062791       0.92850110       0.01261149       0.01151620      -0.01569873      -0.19193084       0.00606930      -0.05199983
C        0.63518934       2.10111661       1.35398438       0.01225570      -0.00953921       0.00187034      -0.00156556      -0.01405905      -0.00373002
H       -0.43347575       1.89093269       1.43354647       0.02166935      -0.00482734       0.01591912       0.00570979      -0.03269561      -0.04255469
H        1.16299049       1.63816961       2.19265929       0.03018066      -0.01596739      -0.02396757      -0.01794482       0.02109600       0.02023284
H        0.79241418       3.18646660       1.40034609       0.01767746      -0.00153960       0.00214233       0.00438277      -0.00596962      -0.01059988
N        0.54764253       2.12286822      -1.15853234      -0.01230486       0.00694278      -0.00602853       0.01649462      -0.05807026       0.00924946
H        0.50677638       3.12932417      -1.02978237      -0.02174835       0.01268355       0.00407126       0.00511110      -0.04017304       0.02636394
H       -0.39849629       1.75005006      -1.17786899      -0.00881059      -0.00264883      -0.01184180       0.01411199      -0.13023845       0.05809177
14
Properties=species:S:1:pos:R:3:mp2_forces:R:3:forces:R:3 R1=H R2=H R3=CH3 R4=NH2 lg=F nu=F rxn-id=150 mp2_energy=-10143.674123910576 energy=-10143.297530841752 free_energy=-10143.674123704342 pbc="F F F"
C        1.08907787      -0.00068327       0.08953007       0.00059946       0.01121156       0.02380169       1.90095491      -0.24799029       0.57940999
C        1.15877883       1.51948191       0.04053301      -0.00079880      -0.00313025      -0.01815589       0.13460579      -0.00230694       0.02622374
H        2.23641784       1.68063975      -0.01461412      -0.00467895       0.01318515      -0.02628533       0.11909455       0.39276048       0.00390906
F       -0.91065952       0.11716181      -0.41378680       0.00683891      -0.01005095       0.00026681      -0.98342098       0.18223344      -0.20208901
F        2.56936423      -0.32904176       0.61441386      -0.05771078      -0.00109692       0.08158254      -0.67756805       0.11693477      -0.32722481
H        1.11779332      -0.52746087      -0.85204710       0.00421930      -0.00673877      -0.02767624      -0.24225034       0.11929868       0.02267918
H        0.58790882      -0.48127215       0.91234291       0.01261149       0.01151620      -0.01569873      -0.33817948       0.14877799      -0.27404403
C        0.63617599       2.09943485       1.35385216       0.01225570      -0.00953921       0.00187034       0.01352145      -0.03454122      -0.00093196
H       -0.43144264       1.88485895       1.42814649       0.02166935      -0.00482734       0.01591912       0.02482788      -0.09250848      -0.09389743
H        1.16181862       1.64056474       2.19687307       0.03018066      -0.01596739      -0.02396757      -0.03206416       0.04181060       0.06501417
H        0.79254447       3.18530054       1.40000321       0.01767746      -0.00153960       0.00214233       0.00213215      -0.01917537      -0.01289259
N        0.54911932       2.11306917      -1.15733862      -0.01230486       0.00694278      -0.00602853       0.03983005      -0.15584001       0.02171833
H        0.50698876       3.12132363      -1.02736177      -0.02174835       0.01268355       0.00407126       0.00353885      -0.13077126       0.04368313
H       -0.39656625       1.73043642      -1.16848640      -0.00881059      -0.00264883      -0.01184180       0.03497738      -0.31868239       0.14844224
14
Properties=species:S:1:pos:R:3:mp2_forces:R:3:forces:R:3 R1=H R2=H R3=CH3 R4=NH2 lg=F nu=F rxn-id=150 mp2_energy=-10143.674123910576 energy=-10143.728629879071 free_energy=-10143.674123704342 pbc="F F F"
C        1.20432393      -0.00631138       0.11952952       0.00059946       0.01121156       0.02380169       0.66668598      -0.04114457       0.13591534
C        1.19061344       1.52252318       0.04831325      -0.00079880      -0.00313025      -0.01815589       0.17760188       0.01597162       0.05401185
H        2.26071824       1.74232287      -0.01123244      -0.00467895       0.01318515      -0.02628533       0.13738560       0.33773678       0.02473482
F       -1.03569792       0.15105611      -0.43804455       0.00683891      -0.01005095       0.00026681      -0.71275339       0.20758751      -0.10888590
F        2.55104651      -0.33997468       0.59749972      -0.05771078      -0.00109692       0.08158254      -0.09868429      -0.06365519      -0.09497173
H        1.10005651      -0.50001333      -0.84152240       0.00421930      -0.00673877      -0.02767624      -0.09457284       0.16987303       0.06972371
H        0.55856888      -0.44755617       0.86675572       0.01261149       0.01151620      -0.01569873      -0.16880061       0.17567800      -0.25468739