14
Properties=species:S:1:pos:R:3:mp2_forces:R:3:forces:R:3 R1=H R2=CH3 R3=NO2 R4=H lg=Br nu=Br rxn-id=548 mp2_energy=-148797.68343559673 energy=-148797.6834356389 free_energy=-148797.6834356389 pbc="F F F"
C        0.53657693      -0.03653654       0.14005028       0.01098712      -0.00817254      -0.00975513       0.01097824      -0.00814015      -0.00972082
C        1.03924330       1.39056347       0.21606955       0.04341570      -0.01258207      -0.00034730       0.04337331      -0.01257843      -0.00033149
H        2.09325498       1.33241112       0.49452479       0.06079303       0.05849279      -0.03772367       0.06081252       0.05848655      -0.03771956
Br      -1.39015084      -0.04469096      -0.27674569      -0.00385081      -0.01310394      -0.01579738      -0.00384961      -0.01310673      -0.01579606
Br       3.77263041      -0.58647778      -0.89603444      -0.01975164       0.06003689       0.01687124      -0.01975379       0.06003815       0.01687312
H        1.03635882      -0.45778430      -0.73038821      -0.00103293       0.00457566      -0.07341766      -0.00101761       0.00456048      -0.07344370
H        0.93576441       1.90699974      -0.73520938      -0.02317114      -0.03526284      -0.00021969      -0.02317227      -0.03526311      -0.00024589
C        0.83512600      -0.91541665       1.33548056      -0.00812514       0.01743708       0.02495270      -0.00812849       0.01742871       0.02494446
H        1.88915107      -0.77088384       1.57955428       0.00563860      -0.08983849       0.01756845       0.00565380      -0.08982947       0.01757293
H        0.21503336      -0.67578996       2.19760669      -0.00525644       0.04312048       0.02211301      -0.00526576       0.04312584       0.02211955
H        0.69768919      -1.96264561       1.05783123      -0.05315370       0.03461247       0.03715147      -0.05315406       0.03459794       0.03713983
N        0.33867515       2.23465354       1.22130569      -0.00941953       0.03972096      -0.07206354      -0.00946428       0.03969340      -0.07205253
O       -0.22939205       3.25069204       0.81684420       0.00576760      -0.06011743       0.04194627       0.00580459      -0.06011547       0.04194017
O        0.38366341       1.88057329       2.39834248      -0.00284070      -0.03891902       0.04872125      -0.00281660      -0.03889772       0.04871998
14
Properties=species:S:1:pos:R:3:mp2_forces:R:3:forces:R:3 R1=H R2=CH3 R3=NO2 R4=H lg=Br nu=Br rxn-id=548 mp2_energy=-148797.68343559673 energy=-148797.68441299582 free_energy=-148797.6834356389 pbc="F F F"
C        0.54798724      -0.04107826       0.13379218       0.01098712      -0.00817254      -0.00975513       0.00122263      -0.00461795       0.00125994
C        1.04288729       1.38956038       0.19625333       0.04341570      -0.01258207      -0.00034730      -0.00506519      -0.00275124      -0.00063183
H        2.10880453       1.35054805       0.43389704       0.06079303       0.05849279      -0.03772367      -0.00336259      -0.00034757      -0.00706734
Br      -1.38330884      -0.04680912      -0.28056377      -0.00385081      -0.01310394      -0.01579738       0.00563727      -0.01626377      -0.01385565
Br       3.74837734      -0.55901206      -0.87500982      -0.01975164       0.06003689       0.01687124       0.02082859       0.03582331       0.00449826
H        1.04083946      -0.46789630      -0.73910495      -0.00103293       0.00457566      -0.07341766       0.01037742      -0.00388880       0.00469392
H        0.89807720       1.90518323      -0.74890563      -0.02317114      -0.03526284      -0.00021969      -0.01114897      -0.00352118       0.00009726
C        0.83019644      -0.90667609       1.34512346      -0.00812514       0.01743708       0.02495270      -0.00498147      -0.00270524       0.00202108
H        1.87053251      -0.74907140       1.63317562       0.00563860      -0.08983849       0.01756845       0.01145495      -0.03981450      -0.03254358
H        0.17414725      -0.67330206       2.18194256      -0.00525644       0.04312048       0.02211301       0.02612674       0.03498977       0.01970397
H        0.71843464      -1.95665395       1.07082643      -0.05315370       0.03461247       0.03715147      -0.05693130      -0.00160539       0.01544917
N        0.35772064       2.21834693       1.22437471      -0.00941953       0.03972096      -0.07206354      -0.00308303       0.00617867      -0.00574923
O       -0.18869411       3.25790408       0.85336783       0.00576760      -0.06011743       0.04194627       0.01530785       0.00312401       0.00596799
O        0.38762255       1.82462414       2.39006303      -0.00284070      -0.03891902       0.04872125      -0.00638291      -0.00460013       0.00615604
14
Properties=species:S:1:pos:R:3:mp2_forces:R:3:forces:R:3 R1=H R2=CH3 R3=NO2 R4=H lg=Br nu=Br rxn-id=548 mp2_energy=-148797.68343559673 energy=-148797.66997182247 free_energy=-148797.6834356389 pbc="F F F"
C        0.54572622      -0.03600290       0.13163632       0.01098712      -0.00817254      -0.00975513      -0.00132943      -0.00526660       0.00252704
C        1.04385662       1.39371058       0.19111804       0.04341570      -0.01258207      -0.00034730      -0.01001849      -0.00300193       0.00081183
H        2.11045073       1.35363632       0.42549840       0.06079303       0.05849279      -0.03772367      -0.00776676      -0.00421470      -0.00730868
Br      -1.39082362      -0.03349680      -0.26185230      -0.00385081      -0.01310394      -0.01579738       0.00714547      -0.02559026      -0.02693924
Br       3.72755348      -0.60080570      -0.85358605      -0.01975164       0.06003689       0.01687124       0.03939428       0.03326054      -0.00611419
H        1.02553019      -0.46370781      -0.74752908      -0.00103293       0.00457566      -0.07341766       0.01697683      -0.00388933       0.00797345
H        0.89524619       1.91074535      -0.75279602      -0.02317114      -0.03526284      -0.00021969      -0.01772546      -0.00271061       0.00305756
C        0.83676331      -0.90373233       1.34118653      -0.00812514       0.01743708       0.02495270      -0.00853463      -0.00213663       0.00289971
H        1.85734139      -0.70234906       1.66829065       0.00563860      -0.08983849       0.01756845       0.01368514      -0.04205417      -0.04225893
H        0.14381318      -0.71581838       2.15938794      -0.00525644       0.04312048       0.02211301       0.02797485       0.04350638       0.02859703
H        0.78791347      -1.95358154       1.04863615      -0.05315370       0.03461247       0.03715147      -0.06871231      -0.00231602       0.01924552
N        0.36215432       2.21892543       1.22370730      -0.00941953       0.03972096      -0.07206354      -0.00361107       0.00701060      -0.00120853
O       -0.18947045       3.25750270       0.85792142       0.00576760      -0.06011743       0.04194627       0.01830388       0.00843596       0.00959411
O        0.39756912       1.82064171       2.38761273      -0.00284070      -0.03891902       0.04872125      -0.00578231      -0.00103324       0.00912332
14
Properties=species:S:1:pos:R:3:mp2_forces:R:3:forces:R:3 R1=H R2=CH3 R3=NO2 R4=H lg=Br nu=Br rxn-id=548 mp2_energy=-148797.68343559673 energy=-148797.657079413 free_energy=-148797.6834356389 pbc="F F F"
C        0.54456266      -0.03061592       0.12918956       0.01098712      -0.00817254      -0.00975513      -0.01130497      -0.00586038       0.00450478
C        1.04794582       1.39804479       0.18536461       0.04341570      -0.01258207      -0.00034730      -0.02050914      -0.00507865       0.00519467
H        2.11437358       1.36089760       0.42091743       0.06079303       0.05849279      -0.03772367      -0.01758327      -0.02211327      -0.00568083
Br      -1.40116916      -0.01003049      -0.22650846      -0.00385081      -0.01310394      -0.01579738       0.00524281      -0.04230765      -0.04908403
Br       3.71427851      -0.63079252      -0.80853652      -0.01975164       0.06003689       0.01687124       0.06546165       0.02757009      -0.02163104
H        0.99970384      -0.46052834      -0.76120342      -0.00103293       0.00457566      -0.07341766       0.02947386      -0.00029781       0.01482497
H        0.89828179       1.91533706      -0.75853688      -0.02317114      -0.03526284      -0.00021969      -0.02617470      -0.00254542       0.00954738
C        0.84759802      -0.90398084       1.33337954      -0.00812514       0.01743708       0.02495270      -0.01484934      -0.00139356       0.00277211
H        1.85732170      -0.68296485       1.67967512       0.00563860      -0.08983849       0.01756845       0.01235612      -0.03408921      -0.05664289
H        0.13835305      -0.74365048       2.14318788      -0.00525644       0.04312048       0.02211301       0.02776742       0.04401183       0.03915907
H        0.83101981      -1.95103887       1.02750888      -0.05315370       0.03461247       0.03715147      -0.07337212      -0.00212089       0.02194290
N        0.36190334       2.21789886       1.21867836      -0.00941953       0.03972096      -0.07206354      -0.00257113       0.01204233       0.00601408
O       -0.19853368       3.25244349       0.85534336       0.00576760      -0.06011743       0.04194627       0.02610955       0.01930367       0.01250376
O        0.39798486       1.81464807       2.38077256      -0.00284070      -0.03891902       0.04872125      -0.00004675       0.01287891       0.01657506
14
Properties=species:S:1:pos:R:3:mp2_forces:R:3:forces:R:3 R1=H R2=CH3 R3=NO2 R4=H lg=Br nu=Br rxn-id=548 mp2_energy=-148797.68343559673 energy=-148797.63744292044 free_energy=-148797.6834356389 pbc="F F F"
C        0.54911303      -0.02763204       0.12666704       0.01098712      -0.00817254      -0.00975513      -0.03737474      -0.00211922       0.00931619
C        1.05761810       1.40087738       0.17903899       0.04341570      -0.01258207      -0.00034730      -0.04055479      -0.00703825       0.01049232
H        2.12343969       1.37494234       0.41818897       0.06079303       0.05849279      -0.03772367      -0.03372423      -0.06932487      -0.00590815
Br      -1.40710795       0.01856045      -0.18922238      -0.00385081      -0.01310394      -0.01579738       0.00040786      -0.06789919      -0.07169766
Br       3.68665909      -0.64171144      -0.76946077      -0.01975164       0.06003689       0.01687124       0.12078978       0.01068724      -0.04722095
H        0.97178010      -0.46159535      -0.77675392      -0.00103293       0.00457566      -0.07341766       0.05737359       0.01032318       0.03419070
H        0.90665485       1.91653319      -0.76589500      -0.02317114      -0.03526284      -0.00021969      -0.03418439       0.00005705       0.01837288
C        0.85846719      -0.90639870       1.32752419      -0.00812514       0.01743708       0.02495270      -0.02869314       0.00349196       0.00267492
H        1.85542844      -0.67151561       1.69958240       0.00563860      -0.08983849       0.01756845       0.01045963      -0.01112736      -0.08415575
H        0.13044690      -0.76671593       2.12380002      -0.00525644       0.04312048       0.02211301       0.02579748       0.03218537       0.06401073
H        0.86903984      -1.95114650       1.01320101      -0.05315370       0.03461247       0.03715147      -0.07819800       0.00557772       0.01223444
N        0.36248458       2.21361706       1.21133042      -0.00941953       0.03972096      -0.07206354      -0.00097234       0.02411965       0.01476579
O       -0.20746646       3.24334262       0.84985933       0.00576760      -0.06011743       0.04194627       0.03322070       0.03580839       0.01600748
O        0.39706673       1.80451007       2.37137173      -0.00284070      -0.03891902       0.04872125       0.00565259       0.03525834       0.02691706
14
Properties=species:S:1:pos:R:3:mp2_forces:R:3:forces:R:3 R1=H R2=CH3 R3=NO2 R4=H lg=Br nu=Br rxn-id=548 mp2_energy=-148797.68343559673 energy=-148797.5687538655 free_energy=-148797.6834356389 pbc="F F F"
C        0.57377752      -0.02812364       0.12171250       0.01098712      -0.00817254      -0.00975513      -0.14424654       0.02087545       0.03177756
C        1.08042401       1.40558508       0.17015093       0.04341570      -0.01258207      -0.00034730      -0.09464200      -0.01072167       0.01248745
H        2.14378172       1.42276271       0.41987498       0.06079303       0.05849279      -0.03772367      -0.06964498      -0.22153413      -0.02429869
Br      -1.40344925       0.05209509      -0.14920721      -0.00385081      -0.01310394      -0.01579738       0.02140399      -0.08732158      -0.06623800
Br       3.59620193      -0.64220016      -0.73199506      -0.01975164       0.06003689       0.01687124       0.30429643      -0.04610592      -0.11870810
H        0.93222168      -0.46835641      -0.80397682      -0.00103293       0.00457566      -0.07341766       0.16317585       0.03514564       0.09951876
H        0.92271319       1.91408017      -0.77795539      -0.02317114      -0.03526284      -0.00021969      -0.04463062       0.01892665       0.03473101
C        0.87848532      -0.91295704       1.32415895      -0.00812514       0.01743708       0.02495270      -0.07997119       0.01536321      -0.00817889
H        1.84627930      -0.66433380       1.75951760       0.00563860      -0.08983849       0.01756845      -0.01040780       0.05954030      -0.17584980
H        0.10829888      -0.79249991       2.08141852      -0.00525644       0.04312048       0.02211301       0.01567737      -0.02786905       0.14162082
H        0.92732101      -1.95612777       1.00576177      -0.05315370       0.03461247       0.03715147      -0.08552256       0.04522402      -0.01602900
N        0.36501951       2.20325550       1.20017458      -0.00941953       0.03972096      -0.07206354      -0.00230198       0.05739076       0.02442888
O       -0.21491931       3.22821843       0.84290550       0.00576760      -0.06011743       0.04194627       0.02545622       0.06810557       0.02415422
O        0.39746863       1.78426932       2.35669117      -0.00284070      -0.03891902       0.04872125       0.00135781       0.07298075       0.04058380
14
Properties=species:S:1:pos:R:3:mp2_forces:R:3:forces:R:3 R1=H R2=CH3 R3=NO2 R4=H lg=Br nu=Br rxn-id=548 mp2_energy=-148797.68343559673 energy=-148797.42617414764 free_energy=-148797.6834356389 pbc="F F F"
C        0.61739506      -0.03297093       0.11531807       0.01098712      -0.00817254      -0.00975513      -0.47176576       0.07609425       0.07018405
C        1.10859812       1.41070186       0.16214659       0.04341570      -0.01258207      -0.00034730      -0.15532952      -0.03433027       0.03661584
H        2.16679351       1.49122884       0.42539591       0.06079303       0.05849279      -0.03772367      -0.12531516      -0.41030671      -0.06141538
Br      -1.40670402       0.08302859      -0.12401569      -0.00385081      -0.01310394      -0.01579738       0.23677367      -0.11257398      -0.00295274
Br       3.50743724      -0.62953796      -0.70045084      -0.01975164       0.06003689       0.01687124       0.53061326      -0.11353202      -0.20373486
H        0.88633568      -0.48226706      -0.83280609      -0.00103293       0.00457566      -0.07341766       0.33073213       0.06819999       0.14539047
H        0.93563600       1.90851201      -0.78822082      -0.02317114      -0.03526284      -0.00021969      -0.04396419       0.06157722       0.02455084
C        0.90233905      -0.92039901       1.32361487      -0.00812514       0.01743708       0.02495270      -0.17928299       0.04791466      -0.02218454
H        1.84708099      -0.68119757       1.81425043       0.00563860      -0.08983849       0.01756845      -0.04336772       0.13801779      -0.29026681
H        0.09851954      -0.78648171       2.04073191      -0.00525644       0.04312048       0.02211301       0.00328919      -0.11972545       0.24696360
H        0.95428405      -1.96553132       1.01211816      -0.05315370       0.03461247       0.03715147      -0.08220023       0.06551027      -0.04873320
N        0.36471703       2.18623889       1.19061677      -0.00941953       0.03972096      -0.07206354       0.00687078       0.09851196       0.03997646
O       -0.22229655       3.20725426       0.83700957       0.00576760      -0.06011743       0.04194627      -0.00490337       0.12083809       0.03645371
O        0.39348843       1.75708868       2.34352320      -0.00284070      -0.03891902       0.04872125      -0.00215009       0.11380420       0.02915257
14
Properties=species:S:1:pos:R:3:mp2_forces:R:3:forces:R:3 R1=H R2=CH3 R3=NO2 R4=H lg=Br nu=Br rxn-id=548 mp2_energy=-148797.68343559673 energy=-148797.1941047912 free_energy=-148797.6834356389 pbc="F F F"
C        0.68320769      -0.04213768       0.11057126       0.01098712      -0.00817254      -0.00975513      -1.06912401       0.13171691       0.04255208
C        1.13234191       1.41337104       0.15913318       0.04341570      -0.01258207      -0.00034730      -0.21823588      -0.03425679       0.03201133
H        2.18227437       1.54803251       0.43403683       0.06079303       0.05849279      -0.03772367      -0.12607161      -0.48247254      -0.08689135
Br      -1.44082706       0.09705462      -0.12602582      -0.00385081      -0.01310394      -0.01579738       0.65489217      -0.10241906       0.11721004
Br       3.42891882      -0.61238312      -0.66934007      -0.01975164       0.06003689       0.01687124       0.72188667      -0.16464521      -0.27262312
H        0.83998800      -0.49327957      -0.85798744      -0.00103293       0.00457566      -0.07341766       0.47913171       0.07312064       0.15916196
H        0.93957107       1.89981678      -0.79251240      -0.02317114      -0.03526284      -0.00021969      -0.02303078       0.08976893       0.01437664
C        0.92726883      -0.92816942       1.32372182      -0.00812514       0.01743708       0.02495270      -0.24626158       0.07660611      -0.00764051
H        1.85386951      -0.69985430       1.85550750       0.00563860      -0.08983849       0.01756845      -0.07619133       0.16725789      -0.34282205
H        0.09736328      -0.77163835       2.00494959      -0.00525644       0.04312048       0.02211301      -0.00418392      -0.18224218       0.31466705
H        0.96950676      -1.97511767       1.01975312      -0.05315370       0.03461247       0.03715147      -0.06634475       0.05619374      -0.06148226
N        0.36436442       2.17197641       1.18648733      -0.00941953       0.03972096      -0.07206354       0.03184166       0.13761069       0.03612750
O       -0.21887200       3.19370613       0.83143341       0.00576760      -0.06011743       0.04194627      -0.04091744       0.13070826       0.04754699
O        0.39464854       1.74429020       2.33950373      -0.00284070      -0.03891902       0.04872125      -0.01739092       0.10305263       0.00780570
14
Properties=species:S:1:pos:R:3:mp2_forces:R:3:forces:R:3 R1=H R2=CH3 R3=NO2 R4=H lg=Br nu=Br rxn-id=548 mp2_energy=-148797.68343559673 energy=-148796.9655898772 free_energy=-148797.6834356389 pbc="F F F"
C        0.75360755      -0.05076903       0.10753733       0.01098712      -0.00817254      -0.00975513      -1.35958157       0.17792387       0.07995825
C        1.14731285       1.41518563       0.15801230       0.04341570      -0.01258207      -0.00034730      -0.19885146      -0.02445187       0.01289866
H        2.19027123       1.58020318       0.43936772       0.06079303       0.05849279      -0.03772367      -0.08672524      -0.40916358      -0.07464146
Br      -1.48379685       0.10346918      -0.13346782      -0.00385081      -0.01310394      -0.01579738       0.78865575      -0.07924238       0.14987970
Br       3.38235584      -0.60114583      -0.65118391      -0.01975164       0.06003689       0.01687124       0.71814197      -0.16300548      -0.26455973
H        0.80805513      -0.49796000      -0.86860324      -0.00103293       0.00457566      -0.07341766       0.49686887       0.02699614       0.06873252
H        0.94055646       1.89394823      -0.79437309      -0.02317114      -0.03526284      -0.00021969      -0.01215393       0.07948047       0.01375666
C        0.94335573      -0.93195228       1.32515973      -0.00812514       0.01743708       0.02495270      -0.21886361       0.04820154      -0.01757906
H        1.85902145      -0.71200449       1.87785561       0.00563860      -0.08983849       0.01756845      -0.05575320       0.14481656      -0.28644824
H        0.09846442      -0.75946376       1.98411230      -0.00525644       0.04312048       0.02211301      -0.00779287      -0.16947670       0.29327307
H        0.97283663      -1.97970045       1.02359976      -0.05315370       0.03461247       0.03715147      -0.04069865       0.04868464      -0.04598338
N        0.36237098       2.16241305       1.18493896      -0.00941953       0.03972096      -0.07206354       0.03666355       0.15213952       0.00383611
O       -0.21596899       3.18594903       0.82829732       0.00576760      -0.06011743       0.04194627      -0.03742590       0.09494812       0.04617121
O        0.39518170       1.73749511       2.33797905      -0.00284070      -0.03891902       0.04872125      -0.02248370       0.07214916       0.02070569
14
Properties=species:S:1:pos:R:3:mp2_forces:R:3:forces:R:3 R1=H R2=CH3 R3=NO2 R4=H lg=Br nu=Br rxn-id=548 mp2_energy=-148797.68343559673 energy=-148796.78760472476 free_energy=-148797.6834356389 pbc="F F F"
C        0.81927296      -0.05912260       0.10412275       0.01098712      -0.00817254      -0.00975513      -1.18851756       0.16669452       0.09247553
C        1.15687109       1.41623131       0.15729859       0.04341570      -0.01258207      -0.00034730      -0.13298863      -0.01456976       0.01269400
H        2.19457111       1.60013245       0.44274193       0.06079303       0.05849279      -0.03772367      -0.05222950      -0.28506114      -0.05259660
Br      -1.52193543       0.10731999      -0.14059369      -0.00385081      -0.01310394      -0.01579738       0.63847919      -0.05114632       0.12224469
Br       3.34785442      -0.59320815      -0.63838266      -0.01975164       0.06003689       0.01687124       0.57786961      -0.12965874      -0.20743541
H        0.78391864      -0.49944407      -0.87221146      -0.00103293       0.00457566      -0.07341766       0.39351381      -0.00630165      -0.00310564
H        0.94083059       1.88997728      -0.79517010      -0.02317114      -0.03526284      -0.00021969      -0.00997494       0.05593020       0.00458327
C        0.95395909      -0.93419801       1.32594165      -0.00812514       0.01743708       0.02495270      -0.15333774       0.02927501      -0.00588112
H        1.86153574      -0.71900439       1.89205439       0.00563860      -0.08983849       0.01756845      -0.03350525       0.10229514      -0.19719890
H        0.09861635      -0.75176658       1.96978484      -0.00525644       0.04312048       0.02211301      -0.00425680      -0.12946304       0.21931061
H        0.97513810      -1.98204387       1.02580131      -0.05315370       0.03461247       0.03715147      -0.02032637       0.03158015      -0.03268888
N        0.36030265       2.15601869       1.18398707      -0.00941953       0.03972096      -0.07206354       0.03369009       0.11263609       0.00333415
O       -0.21336012       3.18109998       0.82639186       0.00576760      -0.06011743       0.04194627      -0.02886578       0.07015760       0.03205609
O        0.39604895       1.73367553       2.33746554      -0.00284070      -0.03891902       0.04872125      -0.01955012       0.04763194       0.01220823
14
Properties=species:S:1:pos:R:3:mp2_forces:R:3:forces:R:3 R1=H R2=CH3 R3=NO2 R4=H lg=Br nu=Br rxn-id=548 mp2_energy=-148797.68343559673 energy=-148796.67049572335 free_energy=-148797.6834356389 pbc="F F F"
C        0.88399129      -0.06802938       0.09927381       0.01098712      -0.00817254      -0.00975513      -0.68474580       0.10395317       0.07048406
C        1.16427341       1.41683707       0.15681848       0.04341570      -0.01258207      -0.00034730      -0.06437170      -0.00533506       0.00922916
H        2.19737402       1.61578166       0.44530395       0.06079303       0.05849279      -0.03772367      -0.02375610      -0.14451755      -0.02776715
Br      -1.55688492       0.11013624      -0.14716902      -0.00385081      -0.01310394      -0.01579738       0.34406857      -0.02305805       0.06753975
Br       3.31656057      -0.58606788      -0.62701690      -0.01975164       0.06003689       0.01687124       0.33229162      -0.07332807      -0.11556508
H        0.76236073      -0.49924115      -0.87219023      -0.00103293       0.00457566      -0.07341766       0.21315446      -0.01772260      -0.03242773
H        0.94095696       1.88683088      -0.79569719      -0.02317114      -0.03526284      -0.00021969      -0.00896009       0.02646461      -0.00086702
C        0.96236008      -0.93570807       1.32627537      -0.00812514       0.01743708       0.02495270      -0.07825897       0.01282101       0.00177412
H        1.86314156      -0.72455657       1.90313737       0.00563860      -0.08983849       0.01756845      -0.01647336       0.05368862      -0.09800760
H        0.09861263      -0.74529393       1.95763864      -0.00525644       0.04312048       0.02211301      -0.00389879      -0.07517900       0.11885855
H        0.97669441      -1.98376104       1.02755058      -0.05315370       0.03461247       0.03715147      -0.00417210       0.01619786      -0.01824579
N        0.35828383       2.15063787       1.18320062      -0.00941953       0.03972096      -0.07206354       0.01895817       0.06246837       0.00273337
O       -0.21099593       3.17725719       0.82492758       0.00576760      -0.06011743       0.04194627      -0.01147047       0.04030600       0.01695433
O        0.39689551       1.73084468       2.33717899      -0.00284070      -0.03891902       0.04872125      -0.01236545       0.02324068       0.00530704
14
Properties=species:S:1:pos:R:3:mp2_forces:R:3:forces:R:3 R1=H R2=CH3 R3=NO2 R4=H lg=Br nu=Br rxn-id=548 mp2_energy=-148797.68343559673 energy=-148796.62790687062 free_energy=-148797.6834356389 pbc="F F F"
C        0.95103219      -0.07798402       0.09254395       0.01098712      -0.00817254      -0.00975513      -0.00157222       0.00255099       0.00187096
C        1.17089394       1.41705644       0.15636129       0.04341570      -0.01258207      -0.00034730       0.00291539      -0.00317595       0.00461015
H        2.19958338       1.63010966       0.44748066       0.06079303       0.05849279      -0.03772367      -0.00120073       0.00110059      -0.00548372
Br      -1.59103838       0.11246583      -0.15368124      -0.00385081      -0.01310394      -0.01579738      -0.00509736       0.00085195       0.00084986
Br       3.28432147      -0.57875269      -0.61555055      -0.01975164       0.06003689       0.01687124       0.00374426       0.00109269       0.00138734
H        0.74131549      -0.49772333      -0.86917521      -0.00103293       0.00457566      -0.07341766      -0.00075867      -0.00243267      -0.00179444
H        0.94106403       1.88404574      -0.79611814      -0.02317114      -0.03526284      -0.00021969      -0.00801979      -0.00202937      -0.00491408
C        0.97010521      -0.93680972       1.32616492      -0.00812514       0.01743708       0.02495270       0.00049968       0.00146473       0.00059892
H        1.86435555      -0.72974364       1.91330319       0.00563860      -0.08983849       0.01756845      -0.00406592       0.00122963       0.00525030
H        0.09857849      -0.73899604       1.94561683      -0.00525644       0.04312048       0.02211301      -0.00430415      -0.01122113      -0.00376161
H        0.97798435      -1.98535460       1.02927490      -0.05315370       0.03461247       0.03715147       0.00960936      -0.00007777      -0.00064397
N        0.35634655       2.14533951       1.18240469      -0.00941953       0.03972096      -0.07206354      -0.00031534       0.00782754      -0.00433216
O       -0.20864018       3.17366553       0.82363021       0.00576760      -0.06011743       0.04194627       0.01237779       0.00436456       0.00348394
O        0.39772204       1.72834889       2.33697655      -0.00284070      -0.03891902       0.04872125      -0.00381232      -0.00154580       0.00287852
14
Properties=species:S:1:pos:R:3:mp2_forces:R:3:forces:R:3 R1=H R2=CH3 R3=NO2 R4=H lg=Br nu=Br rxn-id=548 mp2_energy=-148797.68343559673 energy=-148796.6690267264 free_energy=-148797.6834356389 pbc="F F F"
C        1.01780769      -0.08849736       0.08427232       0.01098712      -0.00817254      -0.00975513       0.62849005      -0.09645029      -0.07603543
C        1.17738683       1.41668755       0.15582433       0.04341570      -0.01258207      -0.00034730       0.06425281      -0.00710937       0.00005032
H        2.20166329       1.64403270       0.44914812       0.06079303       0.05849279      -0.03772367       0.01831835       0.13208126       0.01026700
Br      -1.62407973       0.11412492      -0.16048782      -0.00385081      -0.01310394      -0.01579738      -0.31759449       0.01683258      -0.06338310
Br       3.24958972      -0.57090093      -0.60370935      -0.01975164       0.06003689       0.01687124      -0.32429998       0.07513602       0.11324505
H        0.72131903      -0.49466215      -0.86233167      -0.00103293       0.00457566      -0.07341766      -0.18872706       0.02595143       0.06215114
H        0.94123899       1.88142991      -0.79643486      -0.02317114      -0.03526284      -0.00021969      -0.00652142      -0.02644722      -0.00802364