11
Properties=species:S:1:pos:R:3:mp2_forces:R:3:forces:R:3 R1=H R2=H R3=CN R4=CN lg=Br nu=Br rxn-id=93 mp2_energy=-147186.52730647416 energy=-147186.52730647416 free_energy=-147186.52730647416 pbc="F F F"
C        0.67720009      -0.04269356      -0.00199919      -0.01654675      -0.04559515      -0.00043988      -0.01654675      -0.04559515      -0.00043988
C        1.15467509       1.40781332      -0.00177018      -0.01371982      -0.03720091       0.00356585      -0.01371982      -0.03720091       0.00356585
H        2.26076456       1.28369535       0.00027307      -0.01005254       0.01267933       0.00539136      -0.01005254       0.01267933       0.00539136
Br      -1.26511693      -0.21701814      -0.00052781      -0.00399999       0.07590633      -0.00182799      -0.00399999       0.07590633      -0.00182799
Br       3.96424467      -0.42550267       0.03889172       0.01281030       0.04421895      -0.00319813       0.01281030       0.04421895      -0.00319813
H        1.06307226      -0.54419727      -0.88412796       0.01038675      -0.01559011      -0.02714514       0.01038675      -0.01559011      -0.02714514
H        1.06528712      -0.54479072       0.87871727       0.00936915      -0.01447307       0.02866253       0.00936915      -0.01447307       0.02866253
C        0.74033801       2.13866816       1.19634449       0.01282680      -0.02728549      -0.03399327       0.01282680      -0.02728549      -0.03399327
N        0.41395071       2.72133843       2.16166082      -0.00373170       0.01703339       0.03405402      -0.00373170       0.01703339       0.03405402
C        0.74294664       2.13875221      -1.20049270      -0.00268168      -0.01747603       0.01350522      -0.00268168      -0.01747603       0.01350522
N        0.41734385       2.72045988      -2.16690965       0.00533948       0.00778274      -0.01857455       0.00533948       0.00778274      -0.01857455
11
Properties=species:S:1:pos:R:3:mp2_forces:R:3:forces:R:3 R1=H R2=H R3=CN R4=CN lg=Br nu=Br rxn-id=93 mp2_energy=-147186.52730647416 energy=-147186.5334162337 free_energy=-147186.52730647416 pbc="F F F"
C        0.69102875      -0.03310669      -0.00174410      -0.01654675      -0.04559515      -0.00043988      -0.02167902      -0.00919353       0.00023771
C        1.16186142       1.42102223      -0.00205934      -0.01371982      -0.03720091       0.00356585      -0.00527859      -0.00215032       0.00024819
H        2.26825783       1.31792691      -0.00063321      -0.01005254       0.01267933       0.00539136      -0.00969546      -0.04285138       0.00100834
Br      -1.25425214      -0.17472477      -0.00647466      -0.00399999       0.07590633      -0.00182799      -0.01500090      -0.01791309       0.00090480
Br       3.94333228      -0.46335641       0.03952769       0.01281030       0.04421895      -0.00319813       0.03953536       0.04209045      -0.00203693
H        1.08141573      -0.53281115      -0.88338093       0.01038675      -0.01559011      -0.02714514      -0.01348133      -0.01404676      -0.00174495
H        1.07773067      -0.53099147       0.88237441       0.00936915      -0.01447307       0.02866253      -0.01248685      -0.01387547       0.00202126
C        0.73435033       2.13524531       1.20180857       0.01282680      -0.02728549      -0.03399327       0.00459925      -0.00091746      -0.00520690
N        0.40057139       2.68180324       2.18593925      -0.00373170       0.01703339       0.03405402       0.01199733       0.02961542      -0.02024221
C        0.73336700       2.13493521      -1.20575384      -0.00268168      -0.01747603       0.01350522       0.00622553      -0.00086669       0.00489601
N        0.39704281       2.68058258      -2.18954397       0.00533948       0.00778274      -0.01857455       0.01526468       0.03010883       0.01991468
11
Properties=species:S:1:pos:R:3:mp2_forces:R:3:forces:R:3 R1=H R2=H R3=CN R4=CN lg=Br nu=Br rxn-id=93 mp2_energy=-147186.52730647416 energy=-147186.52017453726 free_energy=-147186.52730647416 pbc="F F F"
C        0.70865887      -0.02128926      -0.00176429      -0.01654675      -0.04559515      -0.00043988      -0.03745466      -0.01087332       0.00007067
C        1.16794358       1.43756544      -0.00253979      -0.01371982      -0.03720091       0.00356585      -0.01224439       0.00149111       0.00019399
H        2.27402479       1.35863542      -0.00222877      -0.01005254       0.01267933       0.00539136      -0.01860676      -0.08556767       0.00165443
Br      -1.23782060      -0.16097414      -0.00974152      -0.00399999       0.07590633      -0.00182799      -0.02238192      -0.04008739       0.00199145
Br       3.91106411      -0.52118740       0.04152274       0.01281030       0.04421895      -0.00319813       0.07129960       0.04977912      -0.00190596
H        1.10112333      -0.52058775      -0.88215584       0.01038675      -0.01559011      -0.02714514      -0.01576292      -0.01436558      -0.00236736
H        1.09400400      -0.51736776       0.88340161       0.00936915      -0.01447307       0.02866253      -0.01285111      -0.01425505       0.00178602
C        0.72857540       2.13710576       1.20635265       0.01282680      -0.02728549      -0.03399327       0.00671694       0.00366800      -0.00839911
N        0.38559853       2.65445419       2.20302199      -0.00373170       0.01703339       0.03405402       0.01366252       0.05265283      -0.03321745
C        0.72489109       2.13688443      -1.21022587      -0.00268168      -0.01747603       0.01350522       0.00924499       0.00386710       0.00767400
N        0.37664297       2.65328606      -2.20558302       0.00533948       0.00778274      -0.01857455       0.01837771       0.05369085       0.03251934
11
Properties=species:S:1:pos:R:3:mp2_forces:R:3:forces:R:3 R1=H R2=H R3=CN R4=CN lg=Br nu=Br rxn-id=93 mp2_energy=-147186.52730647416 energy=-147186.50039156099 free_energy=-147186.52730647416 pbc="F F F"
C        0.72911279      -0.01572188      -0.00158129      -0.01654675      -0.04559515      -0.00043988      -0.06814936       0.00180644      -0.00025411
C        1.17430470       1.44952764      -0.00281120      -0.01371982      -0.03720091       0.00356585      -0.02982081       0.00879483       0.00007564
H        2.28002133       1.40823695      -0.00348281      -0.01005254       0.01267933       0.00539136      -0.03176309      -0.17240477       0.00262298
Br      -1.22036195      -0.14932648      -0.01163195      -0.00399999       0.07590633      -0.00182799      -0.03477010      -0.06573195       0.00210936
Br       3.86576442      -0.56901356       0.04199411       0.01281030       0.04421895      -0.00319813       0.14784711       0.03737030      -0.00099789
H        1.11975214      -0.51741148      -0.88109351       0.01038675      -0.01559011      -0.02714514      -0.01444692       0.01044816       0.00164086
H        1.11000644      -0.51309772       0.88443389       0.00936915      -0.01447307       0.02866253      -0.00929820       0.01079253      -0.00299767
C        0.72185098       2.13656573       1.20902880       0.01282680      -0.02728549      -0.03399327       0.00941276       0.01772390      -0.00870077
N        0.37475585       2.63576187       2.21341337      -0.00373170       0.01703339       0.03405402       0.00660257       0.06584392      -0.03621402
C        0.71649591       2.13632599      -1.21280672      -0.00268168      -0.01747603       0.01350522       0.01281733       0.01818654       0.00742602
N        0.36300344       2.63467792      -2.21540280       0.00533948       0.00778274      -0.01857455       0.01156872       0.06717012       0.03528960
11
Properties=species:S:1:pos:R:3:mp2_forces:R:3:forces:R:3 R1=H R2=H R3=CN R4=CN lg=Br nu=Br rxn-id=93 mp2_energy=-147186.52730647416 energy=-147186.4667099225 free_energy=-147186.52730647416 pbc="F F F"
C        0.75135651      -0.01946201      -0.00112865      -0.01654675      -0.04559515      -0.00043988      -0.13529090       0.03676506      -0.00055172
C        1.18343110       1.45351831      -0.00264752      -0.01371982      -0.03720091       0.00356585      -0.06946381       0.01910658      -0.00022125
H        2.28757935       1.46759276      -0.00403555      -0.01005254       0.01267933       0.00539136      -0.05127951      -0.32555817       0.00387976
Br      -1.20572518      -0.13343865      -0.01201341      -0.00399999       0.07590633      -0.00182799      -0.04046503      -0.09624241       0.00116436
Br       3.81484503      -0.59213509       0.04023977       0.01281030       0.04421895      -0.00319813       0.27352743      -0.00230335       0.00079909
H        1.13023053      -0.52835024      -0.88177695       0.01038675      -0.01559011      -0.02714514       0.00066631       0.06759175       0.02278181
H        1.11877281      -0.52354970       0.88687937       0.00936915      -0.01447307       0.02866253       0.00874034       0.06855223      -0.02451429
C        0.71569740       2.13063977       1.20949099       0.01282680      -0.02728549      -0.03399327       0.01345817       0.04905793      -0.00620233
N        0.36980265       2.62653463       2.21572059      -0.00373170       0.01703339       0.03405402      -0.01066788       0.06548887      -0.02485852
C        0.71005471       2.13009873      -1.21293917      -0.00268168      -0.01747603       0.01350522       0.01785182       0.05035374       0.00399805
N        0.35866117       2.62507648      -2.21772957       0.00533948       0.00778274      -0.01857455      -0.00707695       0.06718777       0.02372503
11
Properties=species:S:1:pos:R:3:mp2_forces:R:3:forces:R:3 R1=H R2=H R3=CN R4=CN lg=Br nu=Br rxn-id=93 mp2_energy=-147186.52730647416 energy=-147186.4006005294 free_energy=-147186.52730647416 pbc="F F F"
C        0.77818185      -0.02549380      -0.00071573      -0.01654675      -0.04559515      -0.00043988      -0.30927852       0.08188734      -0.00221089
C        1.19812988       1.45559130      -0.00243442      -0.01371982      -0.03720091       0.00356585      -0.13451011       0.02006733      -0.00062719
H        2.29767545       1.53533937      -0.00457082      -0.01005254       0.01267933       0.00539136      -0.06919636      -0.50964870       0.00487398
Br      -1.19569373      -0.10828530      -0.01253550      -0.00399999       0.07590633      -0.00182799       0.01441827      -0.12647322       0.00056808
Br       3.76041970      -0.59805347       0.03869478       0.01281030       0.04421895      -0.00319813       0.44193797      -0.06220996       0.00327338
H        1.13309197      -0.54303432      -0.88657173       0.01038675      -0.01559011      -0.02714514       0.03413139       0.12328454       0.07456062
H        1.11966269      -0.53798400       0.89303463       0.00936915      -0.01447307       0.02866253       0.04695153       0.12465943      -0.07558873
C        0.71230041       2.11899321       1.21010253       0.01282680      -0.02728549      -0.03399327       0.01609216       0.10514943      -0.00231632
N        0.36783716       2.61173431       2.21804171      -0.00373170       0.01703339       0.03405402      -0.03231673       0.06615442      -0.00052577
C        0.70618963       2.11801462      -1.21309415      -0.00268168      -0.01747603       0.01350522       0.02173657       0.10868100      -0.00070560
N        0.35691105       2.60970307      -2.21989141       0.00533948       0.00778274      -0.01857455      -0.02996618       0.06844839      -0.00130156
11
Properties=species:S:1:pos:R:3:mp2_forces:R:3:forces:R:3 R1=H R2=H R3=CN R4=CN lg=Br nu=Br rxn-id=93 mp2_energy=-147186.52730647416 energy=-147186.29081012975 free_energy=-147186.52730647416 pbc="F F F"
C        0.81601290      -0.03383039      -0.00029544      -0.01654675      -0.04559515      -0.00043988      -0.74386635       0.10540824      -0.01101624
C        1.21545462       1.45584192      -0.00233297      -0.01371982      -0.03720091       0.00356585      -0.19949475       0.01107951      -0.00055272
H        2.30806446       1.59746248      -0.00510920      -0.01005254       0.01267933       0.00539136      -0.09606605      -0.65020633       0.00518826
Br      -1.19544163      -0.09120066      -0.01277042      -0.00399999       0.07590633      -0.00182799       0.22041911      -0.12018135       0.00047521
Br       3.70136732      -0.58898304       0.03780930       0.01281030       0.04421895      -0.00319813       0.65679543      -0.13846123       0.00646777
H        1.12965642      -0.55946943      -0.89731152       0.01038675      -0.01559011      -0.02714514       0.09723499       0.17085393       0.16813685
H        1.11440625      -0.55432009       0.90437085       0.00936915      -0.01447307       0.02866253       0.11732354       0.17036249      -0.16321057
C        0.71129252       2.10539621       1.21010068       0.01282680      -0.02728549      -0.03399327       0.02431888       0.16332124      -0.00191101
N        0.37018297       2.60193699       2.21703239      -0.00373170       0.01703339       0.03405402      -0.05443078       0.05816936       0.02475541
C        0.70459398       2.10398087      -1.21279907      -0.00268168      -0.01747603       0.01350522       0.03069391       0.16926812      -0.00105750
N        0.35911625       2.59971012      -2.21863471       0.00533948       0.00778274      -0.01857455      -0.05292793       0.06038603      -0.02727548
11
Properties=species:S:1:pos:R:3:mp2_forces:R:3:forces:R:3 R1=H R2=H R3=CN R4=CN lg=Br nu=Br rxn-id=93 mp2_energy=-147186.52730647416 energy=-147186.15137486416 free_energy=-147186.52730647416 pbc="F F F"
C        0.86438170      -0.03981054       0.00011503      -0.01654675      -0.04559515      -0.00043988      -1.32582371       0.09123619      -0.01530277
C        1.22956716       1.45675093      -0.00224347      -0.01371982      -0.03720091       0.00356585      -0.23549107       0.00935792      -0.00077537
H        2.31545469       1.64022849      -0.00542923      -0.01005254       0.01267933       0.00539136      -0.10857878      -0.67398792       0.00507551
Br      -1.21005869      -0.08312657      -0.01286346      -0.00399999       0.07590633      -0.00182799       0.53833392      -0.08982275       0.00141986
Br       3.65822898      -0.58097267       0.03717959       0.01281030       0.04421895      -0.00319813       0.78741931      -0.18255743       0.00834864
H        1.12378014      -0.57183577      -0.90946760       0.01038675      -0.01559011      -0.02714514       0.17492011       0.18564553       0.23087362
H        1.10728569      -0.56663064       0.91670871       0.00936915      -0.01447307       0.02866253       0.19785578       0.18473139      -0.22394292
C        0.70924277       2.09479457       1.21033398       0.01282680      -0.02728549      -0.03399327       0.04874163       0.19125325      -0.00671423
N        0.37284399       2.59826727       2.21541174      -0.00373170       0.01703339       0.03405402      -0.06694127       0.04161160       0.02731869
C        0.70216425       2.09294917      -1.21284295      -0.00268168      -0.01747603       0.01350522       0.05539689       0.19914324       0.00372695
N        0.36181540       2.59591075      -2.21684246       0.00533948       0.00778274      -0.01857455      -0.06583281       0.04338897      -0.03002796
11
Properties=species:S:1:pos:R:3:mp2_forces:R:3:forces:R:3 R1=H R2=H R3=CN R4=CN lg=Br nu=Br rxn-id=93 mp2_energy=-147186.52730647416 energy=-147185.99489620258 free_energy=-147186.52730647416 pbc="F F F"
C        0.91671983      -0.04409154       0.00053576      -0.01654675      -0.04559515      -0.00043988      -1.73753040       0.11471792      -0.01505416
C        1.23954986       1.45788109      -0.00218169      -0.01371982      -0.03720091       0.00356585      -0.23216213       0.00409576      -0.00112179
H        2.31937495       1.66685286      -0.00560114      -0.01005254       0.01267933       0.00539136      -0.08050643      -0.60806340       0.00455507
Br      -1.23110538      -0.07953402      -0.01292947      -0.00399999       0.07590633      -0.00182799       0.74075235      -0.06005165       0.00215270
Br       3.62634892      -0.57426893       0.03670826       0.01281030       0.04421895      -0.00319813       0.81193911      -0.19320187       0.00862054
H        1.11718887      -0.57898623      -0.91838997       0.01038675      -0.01559011      -0.02714514       0.24373974       0.14333036       0.19966280
H        1.09984352      -0.57375304       0.92566040       0.00936915      -0.01447307       0.02866253       0.26512248       0.14381917      -0.19365650
C        0.70743688       2.08685333       1.21041060       0.01282680      -0.02728549      -0.03399327       0.06046900       0.19238166      -0.00595489
N        0.37509075       2.59665411       2.21367996      -0.00373170       0.01703339       0.03405402      -0.06987134       0.03041329       0.02679472
C        0.70014070       2.08466480      -1.21283742      -0.00268168      -0.01747603       0.01350522       0.06672633       0.20089041       0.00329799
N        0.36411716       2.59425255      -2.21499542       0.00533948       0.00778274      -0.01857455      -0.06867870       0.03166837      -0.02929647
11
Properties=species:S:1:pos:R:3:mp2_forces:R:3:forces:R:3 R1=H R2=H R3=CN R4=CN lg=Br nu=Br rxn-id=93 mp2_energy=-147186.52730647416 energy=-147185.8327691537 free_energy=-147186.52730647416 pbc="F F F"
C        0.97162890      -0.04811149       0.00104180      -0.01654675      -0.04559515      -0.00043988      -1.82124002       0.13852449      -0.01638199
C        1.24700670       1.45886328      -0.00213789      -0.01371982      -0.03720091       0.00356585      -0.18816270       0.00887023      -0.00084532
H        2.32181028       1.68610159      -0.00572335      -0.01005254       0.01267933       0.00539136      -0.04991691      -0.49484074       0.00386127
Br      -1.25387481      -0.07753846      -0.01301316      -0.00399999       0.07590633      -0.00182799       0.75819190      -0.03562696       0.00234144
Br       3.60007430      -0.56833122       0.03631806       0.01281030       0.04421895      -0.00319813       0.74020669      -0.17710706       0.00751830
H        1.10949976      -0.58363156      -0.92457656       0.01038675      -0.01559011      -0.02714514       0.27325936       0.08313383       0.12773278
H        1.09148935      -0.57835711       0.93175234       0.00936915      -0.01447307       0.02866253       0.29135425       0.08365349      -0.11989788
C        0.70574527       2.08056446       1.21043597       0.01282680      -0.02728549      -0.03399327       0.05908442       0.16994185      -0.00407362
N        0.37698592       2.59564312       2.21227983      -0.00373170       0.01703339       0.03405402      -0.06432892       0.02250742       0.02252365
C        0.69828797       2.07811111      -1.21280746      -0.00268168      -0.01747603       0.01350522       0.06445283       0.17743068       0.00192751
N        0.36605245       2.59321127      -2.21350969       0.00533948       0.00778274      -0.01857455      -0.06290089       0.02351276      -0.02470616
11
Properties=species:S:1:pos:R:3:mp2_forces:R:3:forces:R:3 R1=H R2=H R3=CN R4=CN lg=Br nu=Br rxn-id=93 mp2_energy=-147186.52730647416 energy=-147185.68523139248 free_energy=-147186.52730647416 pbc="F F F"
C        1.02907009      -0.05251797       0.00159195      -0.01654675      -0.04559515      -0.00043988      -1.53460155       0.13485814      -0.01470310
C        1.25297734       1.45950003      -0.00210353      -0.01371982      -0.03720091       0.00356585      -0.12759445       0.02152300      -0.00047729
H        2.32344316       1.70176539      -0.00582464      -0.01005254       0.01267933       0.00539136      -0.02493384      -0.35211778       0.00299899
Br      -1.27722598      -0.07633885      -0.01310657      -0.00399999       0.07590633      -0.00182799       0.61207769      -0.01696659       0.00181208
Br       3.57619715      -0.56299113       0.03596812       0.01281030       0.04421895      -0.00319813       0.58278118      -0.13978167       0.00519748
H        1.10092049      -0.58648535      -0.92864934       0.01038675      -0.01559011      -0.02714514       0.24129633       0.02737208       0.05202546
H        1.08236012      -0.58116233       0.93566748       0.00936915      -0.01447307       0.02866253       0.25445604       0.02801625      -0.04352521
C        0.70404139       2.07505909       1.21044045       0.01282680      -0.02728549      -0.03399327       0.04724430       0.12966451      -0.00323482
N        0.37868773       2.59488857       2.21108666      -0.00373170       0.01703339       0.03405402      -0.05191858       0.01562594       0.01476774
C        0.69645029       2.07237258      -1.21276981      -0.00268168      -0.01747603       0.01350522       0.05142311       0.13532250       0.00163113
N        0.36778429       2.59243496      -2.21224088       0.00533948       0.00778274      -0.01857455      -0.05023023       0.01648360      -0.01649246
11
Properties=species:S:1:pos:R:3:mp2_forces:R:3:forces:R:3 R1=H R2=H R3=CN R4=CN lg=Br nu=Br rxn-id=93 mp2_energy=-147186.52730647416 energy=-147185.57769982726 free_energy=-147186.52730647416 pbc="F F F"
C        1.08824187      -0.05767825       0.00217430      -0.01654675      -0.04559515      -0.00043988      -0.94058259       0.09546430      -0.00937999
C        1.25796736       1.45970628      -0.00207384      -0.01371982      -0.03720091       0.00356585      -0.06699862       0.03082589      -0.00015404
H        2.32451305       1.71538786      -0.00591506      -0.01005254       0.01267933       0.00539136      -0.00798767      -0.19497750       0.00199246
Br      -1.30017740      -0.07560396      -0.01320034      -0.00399999       0.07590633      -0.00182799       0.36490134      -0.00457169       0.00078721
Br       3.55311567      -0.55791052       0.03563195       0.01281030       0.04421895      -0.00319813       0.35143460      -0.08676850       0.00183835
H        1.09166213      -0.58784193      -0.93077755       0.01038675      -0.01559011      -0.02714514       0.14982367      -0.00742749      -0.00022623
H        1.07262928      -0.58247241       0.93759717       0.00936915      -0.01447307       0.02866253       0.15736445      -0.00630687       0.00731355
C        0.70238612       2.06990475       1.21043464       0.01282680      -0.02728549      -0.03399327       0.02830311       0.07591276      -0.00309571
N        0.38028363       2.59425288       2.20995877      -0.00373170       0.01703339       0.03405402      -0.03466577       0.00895167       0.00406414
C        0.69467896       2.06699957      -1.21272916      -0.00268168      -0.01747603       0.01350522       0.03114009       0.07922690       0.00199469
N        0.36940540       2.59178073      -2.21104101       0.00533948       0.00778274      -0.01857455      -0.03273261       0.00967052      -0.00513444
11
Properties=species:S:1:pos:R:3:mp2_forces:R:3:forces:R:3 R1=H R2=H R3=CN R4=CN lg=Br nu=Br rxn-id=93 mp2_energy=-147186.52730647416 energy=-147185.52842030168 free_energy=-147186.52730647416 pbc="F F F"
C        1.14986970      -0.06386982       0.00280163      -0.01654675      -0.04559515      -0.00043988      -0.16882842       0.01821493      -0.00158811
C        1.26249723       1.45939742      -0.00204455      -0.01371982      -0.03720091       0.00356585      -0.01006565       0.02774201       0.00018777
H        2.32521620       1.72818048      -0.00600255      -0.01005254       0.01267933       0.00539136       0.00078935      -0.03473360       0.00089959
Br      -1.32291994      -0.07517197      -0.01329314      -0.00399999       0.07590633      -0.00182799       0.08049916       0.00142772      -0.00039578
Br       3.52912960      -0.55275385       0.03528425       0.01281030       0.04421895      -0.00319813       0.05519920      -0.02243372      -0.00242546
H        1.08186952      -0.58786142      -0.93101223       0.01038675      -0.01559011      -0.02714514       0.02540932      -0.00981093      -0.00682271
H        1.06241127      -0.58244908       0.93759669       0.00936915      -0.01447307       0.02866253       0.02768852      -0.00815070       0.01099348
C        0.70079570       2.06470498       1.21043684       0.01282680      -0.02728549      -0.03399327       0.00783018       0.01175138      -0.00287597
N        0.38185542       2.59362999       2.20878449      -0.00373170       0.01703339       0.03405402      -0.01500915       0.00157343      -0.00993033
C        0.69298125       2.06158013      -1.21269943      -0.00268168      -0.01747603       0.01350522       0.00932867       0.01232913       0.00223763
N        0.37100014       2.59113812      -2.20979212       0.00533948       0.00778274      -0.01857455      -0.01284118       0.00209035       0.00971988
11
Properties=species:S:1:pos:R:3:mp2_forces:R:3:forces:R:3 R1=H R2=H R3=CN R4=CN lg=Br nu=Br rxn-id=93 mp2_energy=-147186.52730647416 energy=-147185.5465282571 free_energy=-147186.52730647416 pbc="F F F"
C        1.21078384      -0.07067012       0.00344494      -0.01654675      -0.04559515      -0.00043988       0.56553102      -0.06457390       0.00604435
C        1.26687110       1.45828630      -0.00200962      -0.01371982      -0.03720091       0.00356585       0.04296422       0.01577757       0.00058980
H        2.32564131       1.74019957      -0.00608744      -0.01005254       0.01267933       0.00539136       0.00571390       0.11026287      -0.00011968
Br      -1.34475860      -0.07523705      -0.01337823      -0.00399999       0.07590633      -0.00182799      -0.18241110       0.00110585      -0.00143285
Br       3.50350262      -0.54761936       0.03491554       0.01281030       0.04421895      -0.00319813      -0.24953256       0.03908343      -0.00677937
H        1.07273603      -0.58614232      -0.92870444       0.01038675      -0.01559011      -0.02714514      -0.08648225       0.00911644       0.01784750
H        1.05291271      -0.58069870       0.93503291       0.00936915      -0.01447307       0.02866253      -0.08852953       0.01112770      -0.01668460
C        0.69952185       2.05926623       1.21045143       0.01282680      -0.02728549      -0.03399327      -0.00811181      -0.05296015      -0.00257833
N        0.38335802       2.59287489       2.20742985      -0.00373170       0.01703339       0.03405402       0.00310987      -0.00700433      -0.02554591
C        0.69161166       2.05591281      -1.21268111      -0.00268168      -0.01747603       0.01350522      -0.00775285      -0.05514027       0.00242048
N        0.37252553       2.59035273      -2.20835397       0.00533948       0.00778274      -0.01857455       0.00550108      -0.00679520       0.02623859
11
Properties=species:S:1:pos:R:3:mp2_forces:R:3:forces:R:3 R1=H R2=H R3=CN R4=CN lg=Br nu=Br rxn-id=93 mp2_energy=-147186.52730647416 energy=-147185.61614649513 free_energy=-147186.52730647416 pbc="F F F"
C        1.26731217      -0.07760420       0.00405741      -0.01654675      -0.04559515      -0.00043988       1.05030721      -0.13298253       0.01117309
C        1.27156111       1.45654410      -0.00196788      -0.01371982      -0.03720091       0.00356585       0.08958636      -0.00563933       0.00106174
H        2.32605806       1.75230845      -0.00617277      -0.01005254       0.01267933       0.00539136       0.00937393       0.22279616      -0.00091310
Br      -1.36644570      -0.07546151      -0.01345859      -0.00399999       0.07590633      -0.00182799      -0.38137534      -0.00277598      -0.00213237
Br       3.47825812      -0.54285668       0.03455508       0.01281030       0.04421895      -0.00319813      -0.47898113       0.07962082      -0.00999374
H        1.06506897      -0.58335319      -0.92454885       0.01038675      -0.01559011      -0.02714514      -0.14513831       0.04576904       0.07427495
H        1.04491949      -0.57788123       0.93061796       0.00936915      -0.01447307       0.02866253      -0.14972691       0.04789599      -0.07534308
C        0.69858585       2.05358546       1.21044235       0.01282680      -0.02728549      -0.03399327      -0.01411653      -0.10752147      -0.00268494
N        0.38480576       2.59190752       2.20588909      -0.00373170       0.01703339       0.03405402       0.01600708      -0.01743481      -0.04092877
C        0.69058400       2.04999367      -1.21263391      -0.00268168      -0.01747603       0.01350522      -0.01452968      -0.11205317       0.00304329
N        0.37399823       2.58934259      -2.20671999       0.00533948       0.00778274      -0.01857455       0.01859332      -0.01767473       0.04244294
11
Properties=species:S:1:pos:R:3:mp2_forces:R:3:forces:R:3 R1=H R2=H R3=CN R4=CN lg=Br nu=Br rxn-id=93 mp2_energy=-147186.52730647416 energy=-147185.71424680608 free_energy=-147186.52730647416 pbc="F F F"
C        1.32108879      -0.08450551       0.00465270      -0.01654675      -0.04559515      -0.00043988       1.19985474      -0.16069216       0.01195271
C        1.27724465       1.45413311      -0.00191504      -0.01371982      -0.03720091       0.00356585       0.12951371      -0.02716506       0.00164153
H        2.32663897       1.76605931      -0.00626837      -0.01005254       0.01267933       0.00539136       0.01469334       0.30371120      -0.00146044
Br      -1.39021130      -0.07580026      -0.01354066      -0.00399999       0.07590633      -0.00182799      -0.50787560      -0.00685667      -0.00245275
Br       3.45319771      -0.53863191       0.03420455       0.01281030       0.04421895      -0.00319813      -0.56704433       0.08521016      -0.01103819
H        1.05873707      -0.57937596      -0.91835183       0.01038675      -0.01559011      -0.02714514      -0.14491557       0.08349612       0.13597772