13
Properties=species:S:1:pos:R:3:mp2_forces:R:3:forces:R:3 R1=NO2 R2=H R3=H R4=NO2 lg=Br nu=Cl rxn-id=861 mp2_energy=-95782.83145452052 energy=-95782.83145650776 free_energy=-95782.83145650776 pbc="F F F"
C        0.52262047      -0.03305240      -0.13180070       0.01166858       0.01204241       0.00261338       0.01171264       0.01204499       0.00256111
C        1.12374808       1.35161289      -0.29734155       0.04780274       0.00501216       0.02302785       0.04779078       0.00500956       0.02301535
H        2.03571355       1.26431301      -0.87774556       0.07303082       0.04945564       0.02839615       0.07302795       0.04945604       0.02839699
Br      -1.42183084      -0.03936439      -0.17866153      -0.06143099      -0.06437419       0.03321239      -0.06144650      -0.06440422       0.03323074
Cl       3.37804086      -0.28037807       1.06306816      -0.07366636       0.04034222       0.02319171      -0.07367244       0.04034335       0.02319002
H        0.83351826      -0.46188753       0.81525253       0.02384865       0.01999040       0.00731926       0.02384327       0.01998163       0.00734250
H        1.34656305       1.74614995       0.68753985       0.01994362       0.06508506       0.00665563       0.01994634       0.06508828       0.00667197
N        0.99799105      -1.02479228      -1.16699039      -0.01730341       0.01731151      -0.02783700      -0.01727507       0.01734008      -0.02790148
O        1.49142197      -0.59127108      -2.20019654      -0.02030020      -0.00039654      -0.06623203      -0.02033503      -0.00040594      -0.06616583
O        0.83034962      -2.20304746      -0.88039460      -0.05117872       0.03163439      -0.05023572      -0.05119400       0.03164877      -0.05021891
N        0.23885837       2.34107685      -0.98528328       0.04272212      -0.06295978       0.00436039       0.04273476      -0.06299728       0.00422592
O       -0.31088673       3.18639600      -0.27802606       0.01132720      -0.02080546       0.00246642       0.01131449      -0.02076309       0.00255112
O        0.12771835       2.26591598      -2.20678592      -0.00646406      -0.09233781       0.01306155      -0.00644720      -0.09234216       0.01310049
13
Properties=species:S:1:pos:R:3:mp2_forces:R:3:forces:R:3 R1=NO2 R2=H R3=H R4=NO2 lg=Br nu=Cl rxn-id=861 mp2_energy=-95782.83145452052 energy=-95782.83833710644 free_energy=-95782.83145650776 pbc="F F F"
C        0.54294787      -0.02946293      -0.13705427       0.01166858       0.01204241       0.00261338       0.00210158      -0.00614055      -0.00013410
C        1.14089518       1.35554247      -0.30626954       0.04780274       0.00501216       0.02302785      -0.00139110      -0.00517137       0.00897328
H        2.05029325       1.27678008      -0.89511949       0.07303082       0.04945564       0.02839615       0.01059148      -0.00423561       0.02737015
Br      -1.40572669      -0.05707391      -0.13292448      -0.06143099      -0.06437419       0.03321239       0.00398845      -0.00037965       0.03887270
Cl       3.30411341      -0.27752444       1.16772083      -0.07366636       0.04034222       0.02319171       0.01216920       0.04224582       0.03303438
H        0.88295710      -0.45891636       0.80094131       0.02384865       0.01999040       0.00731926       0.02483765      -0.01512254      -0.01131384
H        1.37636141       1.76151247       0.67059266       0.01994362       0.06508506       0.00665563      -0.02045941      -0.00417320       0.01293322
N        0.99071593      -1.01560903      -1.19400405      -0.01730341       0.01731151      -0.02783700      -0.01907381       0.00300981      -0.01793350
O        1.48067875      -0.58183516      -2.22954920      -0.02030020      -0.00039654      -0.06623203      -0.01367350       0.01651895      -0.01598781
O        0.80330379      -2.19409964      -0.92146204      -0.05117872       0.03163439      -0.05023572      -0.02810270       0.00510103      -0.03762776
N        0.23762390       2.33004482      -0.98331821       0.04272212      -0.06295978       0.00436039       0.00752880      -0.00972112      -0.00870927
O       -0.29699049       3.18781145      -0.27900542       0.01132720      -0.02080546       0.00246642       0.01358553       0.00649876      -0.02295526
O        0.08665265       2.22450163      -2.19791370      -0.00646406      -0.09233781       0.01306155       0.00789783      -0.02843034      -0.00652219
13
Properties=species:S:1:pos:R:3:mp2_forces:R:3:forces:R:3 R1=NO2 R2=H R3=H R4=NO2 lg=Br nu=Cl rxn-id=861 mp2_energy=-95782.83145452052 energy=-95782.83329544701 free_energy=-95782.83145650776 pbc="F F F"
C        0.53916320      -0.02801126      -0.13465181       0.01166858       0.01204241       0.00261338       0.00137020      -0.00614027      -0.00090768
C        1.14013454       1.35625437      -0.30366611       0.04780274       0.00501216       0.02302785      -0.00227097      -0.00488805       0.00760135
H        2.04844357       1.27584510      -0.89357825       0.07303082       0.04945564       0.02839615       0.01024547      -0.00279095       0.02642364
Br      -1.41071562      -0.05456329      -0.15641695      -0.06143099      -0.06437419       0.03321239       0.00339407      -0.00207835       0.04233336
Cl       3.31075405      -0.28191261       1.12751750      -0.07366636       0.04034222       0.02319171       0.01667696       0.03906759       0.03971108
H        0.86377531      -0.45611371       0.80886597       0.02384865       0.01999040       0.00731926       0.02478553      -0.01539552      -0.01195980
H        1.37738172       1.76208497       0.67284153       0.01994362       0.06508506       0.00665563      -0.02119651      -0.00418364       0.01151984
N        0.99692031      -1.01808141      -1.18342304      -0.01730341       0.01731151      -0.02783700      -0.02085273       0.00051444      -0.01749347
O        1.48631865      -0.58744870      -2.22028382      -0.02030020      -0.00039654      -0.06623203      -0.01426502       0.01623202      -0.01847142
O        0.81260552      -2.19569591      -0.90530993      -0.05117872       0.03163439      -0.05023572      -0.02638172       0.00571402      -0.03798500
N        0.23795127       2.33206136      -0.97978942       0.04272212      -0.06295978       0.00436039       0.00717599      -0.00839903      -0.01004810
O       -0.30206266       3.18507837      -0.27383276       0.01132720      -0.02080546       0.00246642       0.01350894       0.00787029      -0.02323878
O        0.09315618       2.23217417      -2.19563851      -0.00646406      -0.09233781       0.01306155       0.00780980      -0.02552254      -0.00748501
13
Properties=species:S:1:pos:R:3:mp2_forces:R:3:forces:R:3 R1=NO2 R2=H R3=H R4=NO2 lg=Br nu=Cl rxn-id=861 mp2_energy=-95782.83145452052 energy=-95782.82968044138 free_energy=-95782.83145650776 pbc="F F F"
C        0.53722768      -0.02639846      -0.13193533       0.01166858       0.01204241       0.00261338      -0.00030223      -0.00671764      -0.00204517
C        1.13975839       1.35762895      -0.30031074       0.04780274       0.00501216       0.02302785      -0.00446563      -0.00541589       0.00580169
H        2.04844357       1.27664523      -0.88931753       0.07303082       0.04945564       0.02839615       0.00898337      -0.00392161       0.02603087
Br      -1.41345209      -0.05248184      -0.17145466      -0.06143099      -0.06437419       0.03321239       0.00190727      -0.00304774       0.04591835
Cl       3.31567727      -0.29004525       1.09573790      -0.07366636       0.04034222       0.02319171       0.02035767       0.03842852       0.04526555
H        0.85074768      -0.45405586       0.81514336       0.02384865       0.01999040       0.00731926       0.02762307      -0.01596753      -0.01346119
H        1.37596735       1.76464401       0.67605227       0.01994362       0.06508506       0.00665563      -0.02293549      -0.00613420       0.01000247
N        1.00133531      -1.01833220      -1.17588867      -0.01730341       0.01731151      -0.02783700      -0.02218439      -0.00191785      -0.01744565
O        1.48970276      -0.58898709      -2.21358071      -0.02030020      -0.00039654      -0.06623203      -0.01305832       0.01492205      -0.01950655
O        0.81886221      -2.19549164      -0.89495705      -0.05117872       0.03163439      -0.05023572      -0.02470300       0.00510380      -0.03763591
N        0.23816802       2.33232509      -0.97840170       0.04272212      -0.06295978       0.00436039       0.00665307      -0.00627915      -0.01155863
O       -0.30702883       3.18292164      -0.27354158       0.01132720      -0.02080546       0.00246642       0.01454050       0.01070270      -0.02270544
O        0.09841673       2.23329889      -2.19491116      -0.00646406      -0.09233781       0.01306155       0.00758412      -0.01975546      -0.00866038
13
Properties=species:S:1:pos:R:3:mp2_forces:R:3:forces:R:3 R1=NO2 R2=H R3=H R4=NO2 lg=Br nu=Cl rxn-id=861 mp2_energy=-95782.83145452052 energy=-95782.80894437263 free_energy=-95782.83145650776 pbc="F F F"
C        0.53471402      -0.01763774      -0.12156280       0.01166858       0.01204241       0.00261338      -0.01761676      -0.00937410      -0.01083525
C        1.14345567       1.36590173      -0.29199059       0.04780274       0.00501216       0.02302785      -0.02259540      -0.01118659      -0.00122403
H        2.04858785       1.28602893      -0.88603614       0.07303082       0.04945564       0.02839615      -0.00723083      -0.02674406       0.02362872
Br      -1.41878497      -0.04417659      -0.23445429      -0.06143099      -0.06437419       0.03321239      -0.00456950      -0.00596898       0.06016558
Cl       3.31475771      -0.33845692       0.98097861      -0.07366636       0.04034222       0.02319171       0.05868112       0.04209222       0.07648395
H        0.79931859      -0.44099016       0.84090871       0.02384865       0.01999040       0.00731926       0.05097396      -0.01491967      -0.02715075
H        1.38374891       1.77903135       0.68134814       0.01994362       0.06508506       0.00665563      -0.03967995      -0.02414950       0.00764403
N        1.02289849      -1.01904622      -1.14405969      -0.01730341       0.01731151      -0.02783700      -0.02873570      -0.00600643      -0.02188010
O        1.50332921      -0.59634680      -2.18760400      -0.02030020      -0.00039654      -0.06623203      -0.00682996       0.00751901      -0.02081563
O        0.84885138      -2.19383024      -0.84997611      -0.05117872       0.03163439      -0.05023572      -0.02029201       0.00242796      -0.03286186
N        0.23568506       2.33343650      -0.97068615       0.04272212      -0.06295978       0.00436039       0.00426239       0.00677943      -0.01611630
O       -0.33126635       3.16911450      -0.26534136       0.01132720      -0.02080546       0.00246642       0.02165122       0.02840855      -0.02206109
O        0.10853049       2.23864312      -2.18888991      -0.00646406      -0.09233781       0.01306155       0.01198142       0.01112215      -0.01497728
13
Properties=species:S:1:pos:R:3:mp2_forces:R:3:forces:R:3 R1=NO2 R2=H R3=H R4=NO2 lg=Br nu=Cl rxn-id=861 mp2_energy=-95782.83145452052 energy=-95782.75658260113 free_energy=-95782.83145650776 pbc="F F F"
C        0.55452216      -0.00733117      -0.10963712       0.01166858       0.01204241       0.00261338      -0.18210131       0.00296496      -0.05635794
C        1.16960341       1.37854226      -0.29300791       0.04780274       0.00501216       0.02302785      -0.09936523      -0.03143592      -0.00997611
H        2.05933074       1.31814298      -0.91322693       0.07303082       0.04945564       0.02839615      -0.07200249      -0.13954589       0.03882130
Br      -1.41256848      -0.03752490      -0.30170489      -0.06143099      -0.06437419       0.03321239       0.04713899       0.01536111       0.06186032
Cl       3.24930300      -0.38701359       0.89838212      -0.07366636       0.04034222       0.02319171       0.23282950       0.02790601       0.15158426
H        0.73960668      -0.42511808       0.87207119       0.02384865       0.01999040       0.00731926       0.15810838       0.00671999      -0.07988429
H        1.42969038       1.80581940       0.66998977       0.01994362       0.06508506       0.00665563      -0.08241637      -0.09530901       0.01309841
N        1.05078184      -1.02120237      -1.11355690      -0.01730341       0.01731151      -0.02783700      -0.06291299       0.00038648      -0.02715893
O        1.50838434      -0.60539728      -2.17011712      -0.02030020      -0.00039654      -0.06623203       0.02324163       0.00002939      -0.00356896
O        0.87693728      -2.19337356      -0.81124259      -0.05117872       0.03163439      -0.05023572      -0.00044960       0.00887111      -0.00517246
N        0.23110757       2.32679656      -0.95520394       0.04272212      -0.06295978       0.00436039      -0.00062692       0.05065184      -0.02440645
O       -0.35958790       3.13447302      -0.23740954       0.01132720      -0.02080546       0.00246642       0.01904633       0.07764542      -0.03084745
O        0.09671504       2.23485822      -2.17270172      -0.00646406      -0.09233781       0.01306155       0.01951008       0.07575451      -0.02799168
13
Properties=species:S:1:pos:R:3:mp2_forces:R:3:forces:R:3 R1=NO2 R2=H R3=H R4=NO2 lg=Br nu=Cl rxn-id=861 mp2_energy=-95782.83145452052 energy=-95782.51942302722 free_energy=-95782.83145650776 pbc="F F F"
C        0.64664124      -0.00956052      -0.07943763       0.01166858       0.01204241       0.00261338      -1.11463613       0.09555958      -0.26234169
C        1.21983681       1.39409531      -0.28630408       0.04780274       0.00501216       0.02302785      -0.22884470      -0.06573266      -0.01238075
H        2.09660895       1.38974163      -0.93008411       0.07303082       0.04945564       0.02839615      -0.14043937      -0.31533140       0.08611943
Br      -1.43793769      -0.04501467      -0.33554971      -0.06143099      -0.06437419       0.03321239       0.56950976       0.08566139       0.04481573
Cl       3.13305152      -0.39743579       0.81086592      -0.07366636       0.04034222       0.02319171       0.55406668      -0.03955450       0.25698486
H        0.65507440      -0.43017962       0.91463657       0.02384865       0.01999040       0.00731926       0.43777815       0.04851683      -0.11535338
H        1.47026620       1.85444161       0.66483290       0.01994362       0.06508506       0.00665563      -0.08991218      -0.18914953       0.01744309
N        1.08086018      -1.02552928      -1.09554121      -0.01730341       0.01731151      -0.02783700      -0.11809028      -0.00092043       0.00090661
O        1.49565819      -0.60530255      -2.16910449      -0.02030020      -0.00039654      -0.06623203       0.07177653      -0.00065134       0.04812360
O        0.87915048      -2.19667298      -0.80710921      -0.05117872       0.03163439      -0.05023572       0.05321877       0.01733767       0.02903618
N        0.23286466       2.30059827      -0.94364355       0.04272212      -0.06295978       0.00436039       0.04151935       0.14165244      -0.03102277
O       -0.37085253       3.09396078      -0.22223917       0.01132720      -0.02080546       0.00246642      -0.03342158       0.11019640      -0.03415461
O        0.09260365       2.19852927      -2.15868782      -0.00646406      -0.09233781       0.01306155      -0.00252501       0.11241554      -0.02817629
13
Properties=species:S:1:pos:R:3:mp2_forces:R:3:forces:R:3 R1=NO2 R2=H R3=H R4=NO2 lg=Br nu=Cl rxn-id=861 mp2_energy=-95782.83145452052 energy=-95782.26160831719 free_energy=-95782.83145650776 pbc="F F F"
C        0.75013133      -0.01828429      -0.05506859       0.01166858       0.01204241       0.00261338      -1.33774437       0.13610646      -0.33096918
C        1.24115848       1.40032255      -0.28513761       0.04780274       0.00501216       0.02302785      -0.15794998      -0.05136632      -0.00335525
H        2.10968572       1.41915030      -0.93820808       0.07303082       0.04945564       0.02839615      -0.08330257      -0.23219011       0.06852036
Br      -1.49044219      -0.05296438      -0.33992683      -0.06143099      -0.06437419       0.03321239       0.60812047       0.08057090       0.02812229
Cl       3.08148054      -0.39439875       0.78735641      -0.07366636       0.04034222       0.02319171       0.51248105      -0.03911618       0.20497735
H        0.61481660      -0.43449569       0.92541706       0.02384865       0.01999040       0.00731926       0.41624808      -0.00458892       0.01317315
H        1.47875159       1.87211914       0.66317006       0.01994362       0.06508506       0.00665563      -0.04320669      -0.13462540       0.01182789
N        1.09104921      -1.02712422      -1.09411247      -0.01730341       0.01731151      -0.02783700      -0.03807289      -0.01473233       0.01210674
O        1.48869181      -0.60467469      -2.17486135      -0.02030020      -0.00039654      -0.06623203       0.05728827      -0.00640286       0.04251728
O        0.87464835      -2.19693180      -0.80992872      -0.05117872       0.03163439      -0.05023572       0.04996424      -0.00431241       0.01328242
N        0.22910038       2.28722814      -0.94125066       0.04272212      -0.06295978       0.00436039       0.06894708       0.13213405      -0.02551362
O       -0.36844999       3.08339198      -0.21890616       0.01132720      -0.02080546       0.00246642      -0.04147876       0.06717756      -0.01917426
O        0.09320424       2.18833317      -2.15590864      -0.00646406      -0.09233781       0.01306155      -0.01129392       0.07134557      -0.01551516
13
Properties=species:S:1:pos:R:3:mp2_forces:R:3:forces:R:3 R1=NO2 R2=H R3=H R4=NO2 lg=Br nu=Cl rxn-id=861 mp2_energy=-95782.83145452052 energy=-95782.09698425692 free_energy=-95782.83145650776 pbc="F F F"
C        0.83991303      -0.02737315      -0.03285245       0.01166858       0.01204241       0.00261338      -0.85365193       0.10146112      -0.23084787
C        1.25179843       1.40380298      -0.28492677       0.04780274       0.00501216       0.02302785      -0.06820484      -0.02327120      -0.00090733
H        2.11525972       1.43478245      -0.94293553       0.07303082       0.04945564       0.02839615      -0.03295760      -0.11368280       0.03453110
Br      -1.53111239      -0.05836646      -0.34198196      -0.06143099      -0.06437419       0.03321239       0.33930944       0.04639681       0.00780554
Cl       3.04703745      -0.39190998       0.77374011      -0.07366636       0.04034222       0.02319171       0.32533278      -0.02411345       0.11835267
H        0.58697531      -0.43413421       0.92457573       0.02384865       0.01999040       0.00731926       0.23454795      -0.03066734       0.06529825
H        1.48179057       1.88118662       0.66230891       0.01994362       0.06508506       0.00665563      -0.01375944      -0.06631268       0.00582016
N        1.09327691      -1.02687255      -1.09430353      -0.01730341       0.01731151      -0.02783700      -0.00674692      -0.01798463       0.01223300
O        1.48461196      -0.60408987      -2.17822658      -0.02030020      -0.00039654      -0.06623203       0.03296851      -0.00645817       0.01401522
O        0.87154222      -2.19615127      -0.81078307      -0.05117872       0.03163439      -0.05023572       0.03098271      -0.00671888       0.00355934
N        0.22454899       2.27823821      -0.93984144       0.04272212      -0.06295978       0.00436039       0.04750836       0.07770428      -0.01838705
O       -0.36607684       3.07869448      -0.21741853       0.01132720      -0.02080546       0.00246642      -0.02864390       0.02920978      -0.00587075
O        0.09426070       2.18386421      -2.15472047      -0.00646406      -0.09233781       0.01306155      -0.00668513       0.03443715      -0.00560227
13
Properties=species:S:1:pos:R:3:mp2_forces:R:3:forces:R:3 R1=NO2 R2=H R3=H R4=NO2 lg=Br nu=Cl rxn-id=861 mp2_energy=-95782.83145452052 energy=-95782.03512916507 free_energy=-95782.83145650776 pbc="F F F"
C        0.92438205      -0.03736890      -0.00998257       0.01166858       0.01204241       0.00261338      -0.05791915       0.00755201      -0.01590860
C        1.25857837       1.40614365      -0.28481878       0.04780274       0.00501216       0.02302785      -0.00401438      -0.00071442       0.00013163
H        2.11848933       1.44610599      -0.94645899       0.07303082       0.04945564       0.02839615      -0.00219728      -0.00632779       0.00154472
Br      -1.56451149      -0.06292686      -0.34303506      -0.06143099      -0.06437419       0.03321239       0.02423687       0.00350174      -0.00258791
Cl       3.01484301      -0.38962795       0.76198915      -0.07366636       0.04034222       0.02319171       0.02385328      -0.00227988       0.00648308
H        0.56386552      -0.43105853       0.91819405       0.02384865       0.01999040       0.00731926       0.01496655      -0.00297539       0.00720327
H        1.48328912       1.88778135       0.66169062       0.01994362       0.06508506       0.00665563       0.00022265      -0.00395840       0.00024059
N        1.09347193      -1.02613422      -1.09462117      -0.01730341       0.01731151      -0.02783700      -0.00589207      -0.01175858       0.00966643
O        1.48103370      -0.60327793      -2.18029248      -0.02030020      -0.00039654      -0.06623203      -0.00019219       0.00095706      -0.00601275
O        0.86881053      -2.19482859      -0.81103414      -0.05117872       0.03163439      -0.05023572       0.00539117       0.00583607       0.00117820
N        0.21997973       2.27035411      -0.93850694       0.04272212      -0.06295978       0.00436039       0.00441446       0.00371089      -0.00558742
O       -0.36383896       3.07557926      -0.21656006       0.01132720      -0.02080546       0.00246642      -0.00746297      -0.00015196       0.00201227
O        0.09543322       2.18093009      -2.15392922      -0.00646406      -0.09233781       0.01306155       0.00459307       0.00660865       0.00163648
13
Properties=species:S:1:pos:R:3:mp2_forces:R:3:forces:R:3 R1=NO2 R2=H R3=H R4=NO2 lg=Br nu=Cl rxn-id=861 mp2_energy=-95782.83145452052 energy=-95782.08880202995 free_energy=-95782.83145650776 pbc="F F F"
C        1.01206086      -0.04889029       0.01540484       0.01166858       0.01204241       0.00261338       0.81417644      -0.10676763       0.23599302
C        1.26412910       1.40693879      -0.28415749       0.04780274       0.00501216       0.02302785       0.05148650       0.00771194       0.00672061
H        2.12071083       1.45589620      -0.94940990       0.07303082       0.04945564       0.02839615       0.02017506       0.09180746      -0.02767111
Br      -1.59817066      -0.06739184      -0.34309389      -0.06143099      -0.06437419       0.03321239      -0.31077730      -0.04071950      -0.00364095
Cl       2.97729029      -0.38692095       0.74976451      -0.07366636       0.04034222       0.02319171      -0.34799045       0.02460237      -0.11589110
H        0.54519553      -0.42472140       0.90577342       0.02384865       0.01999040       0.00731926      -0.17219737       0.05885467      -0.11435301
H        1.48406793       1.89366864       0.66118184       0.01994362       0.06508506       0.00665563       0.00780567       0.05485135      -0.00461423
N        1.09541271      -1.02535757      -1.09412285      -0.01730341       0.01731151      -0.02783700       0.01221251      -0.00536647       0.01559715
O        1.47674114      -0.60190596      -2.18155030      -0.02030020      -0.00039654      -0.06623203      -0.04237341       0.01460046      -0.01956746
O        0.86552598      -2.19276552      -0.81109601      -0.05117872       0.03163439      -0.05023572      -0.02699705       0.02689872       0.00040769
N        0.21524078       2.26188081      -0.93687735       0.04272212      -0.06295978       0.00436039      -0.04289455      -0.08019282       0.01105006
O       -0.36127526       3.07278477      -0.21600564       0.01132720      -0.02080546       0.00246642       0.01809456      -0.02803547       0.00720749
O        0.09689682       2.17845578      -2.15317676      -0.00646406      -0.09233781       0.01306155       0.01927939      -0.01824509       0.00876185
13
Properties=species:S:1:pos:R:3:mp2_forces:R:3:forces:R:3 R1=NO2 R2=H R3=H R4=NO2 lg=Br nu=Cl rxn-id=861 mp2_energy=-95782.83145452052 energy=-95782.25464088548 free_energy=-95782.83145650776 pbc="F F F"
C        1.10292447      -0.06157337       0.04300503       0.01166858       0.01204241       0.00261338       1.20732816      -0.16850587       0.36687195
C        1.27209606       1.40602688      -0.28251964       0.04780274       0.00501216       0.02302785       0.10543794      -0.01179526       0.02256636
H        2.12407921       1.46843927      -0.95274249       0.07303082       0.04945564       0.02839615       0.04405059       0.16795732      -0.04391892
Br      -1.63965971      -0.07290390      -0.34183506      -0.06143099      -0.06437419       0.03321239      -0.54956665      -0.07206288       0.01357859
Cl       2.93485468      -0.38469421       0.73833991      -0.07366636       0.04034222       0.02319171      -0.56271865       0.02916915      -0.15572772
H        0.52937772      -0.41457236       0.88570681       0.02384865       0.01999040       0.00731926      -0.20850183       0.13458399      -0.26543118
H        1.48565570       1.90124096       0.66034736       0.01994362       0.06508506       0.00665563       0.02089386       0.10065555      -0.01043147
N        1.10206419      -1.02448868      -1.09201825      -0.01730341       0.01731151      -0.02783700       0.08430454       0.00382364       0.03485618
O        1.47051056      -0.59965015      -2.18281733      -0.02030020      -0.00039654      -0.06623203      -0.08610304       0.03004198      -0.02133688
O        0.86080928      -2.18956695      -0.81136055      -0.05117872       0.03163439      -0.05023572      -0.06005836       0.04637081      -0.00126300
N        0.21077387       2.25101604      -0.93451679       0.04272212      -0.06295978       0.00436039      -0.05800359      -0.14632895       0.02609139
O       -0.35817748       3.06808813      -0.21509855       0.01132720      -0.02080546       0.00246642       0.03512121      -0.06357931       0.01416515
O        0.09851750       2.17430982      -2.15185603      -0.00646406      -0.09233781       0.01306155       0.02781584      -0.05033015       0.01997953
13
Properties=species:S:1:pos:R:3:mp2_forces:R:3:forces:R:3 R1=NO2 R2=H R3=H R4=NO2 lg=Br nu=Cl rxn-id=861 mp2_energy=-95782.83145452052 energy=-95782.45552735106 free_energy=-95782.83145650776 pbc="F F F"
C        1.19595311      -0.07027827       0.06599098       0.01166858       0.01204241       0.00261338       0.52587708      -0.04987250       0.13239595
C        1.29455999       1.40593229      -0.28061575       0.04780274       0.00501216       0.02302785       0.12662254      -0.00134227       0.01114129
H        2.13841973       1.49751773      -0.95797017       0.07303082       0.04945564       0.02839615       0.07806350       0.16203158      -0.03261044
Br      -1.71939207      -0.08509063      -0.33003406      -0.06143099      -0.06437419       0.03321239      -0.44591159      -0.06980494       0.06433969
Cl       2.89354443      -0.39182781       0.74368804      -0.07366636       0.04034222       0.02319171      -0.23298924      -0.04073637       0.02765753
H        0.51042485      -0.39055088       0.84158769       0.02384865       0.01999040       0.00731926      -0.11114285       0.13534795      -0.25021082
H        1.49401537       1.91589554       0.65825400       0.01994362       0.06508506       0.00665563       0.04868442       0.08562715      -0.01387900
N        1.12046264      -1.02038636      -1.08985893      -0.01730341       0.01731151      -0.02783700       0.10177297       0.01846348       0.01837639
O        1.45934039      -0.59357685      -2.18868606      -0.02030020      -0.00039654      -0.06623203      -0.06806034       0.03733268      -0.03405979
O        0.85249198      -2.17980630      -0.81196402      -0.05117872       0.03163439      -0.05023572      -0.04280129       0.05694324      -0.00199349
N        0.20998922       2.22912609      -0.92957733       0.04272212      -0.06295978       0.00436039      -0.00333068      -0.12548574       0.02459580
O       -0.35483873       3.04939531      -0.21098418       0.01132720      -0.02080546       0.00246642       0.01498518      -0.10738663       0.02609973
O        0.09885516       2.15532161      -2.14719580      -0.00646406      -0.09233781       0.01306155       0.00823028      -0.10111762       0.02814716
13
Properties=species:S:1:pos:R:3:mp2_forces:R:3:forces:R:3 R1=NO2 R2=H R3=H R4=NO2 lg=Br nu=Cl rxn-id=861 mp2_energy=-95782.83145452052 energy=-95782.57998194272 free_energy=-95782.83145650776 pbc="F F F"
C        1.23956422      -0.05631457       0.06056341       0.01166858       0.01204241       0.00261338       0.07143835       0.02075882      -0.00623182
C        1.34423634       1.41791675      -0.28593689       0.04780274       0.00501216       0.02302785       0.07943406       0.01793011      -0.00843101
H        2.18201704       1.53765162      -0.96757904       0.07303082       0.04945564       0.02839615       0.06755431       0.06345428      -0.01765977
Br      -1.83453652      -0.11439104      -0.26607106      -0.06143099      -0.06437419       0.03321239      -0.18377811      -0.04437036       0.09714076