14
Properties=species:S:1:pos:R:3:mp2_forces:R:3:forces:R:3 R1=NH2 R2=CH3 R3=H R4=H lg=F nu=Cl rxn-id=2685 mp2_energy=-19942.284450410996 energy=-19942.284451607753 free_energy=-19942.284451607753 pbc="F F F"
C        0.58127940      -0.16814320      -0.01668473       0.00402267      -0.00604896      -0.01342448       0.00389873      -0.00604547      -0.01344755
C        1.14227725       1.23318791       0.01453648      -0.01533618      -0.01676734       0.00083820      -0.01534549      -0.01676546       0.00083562
H        2.21676103       1.19841065       0.22027298      -0.03097203      -0.00677828      -0.00324263      -0.03093693      -0.00678167      -0.00323497
F       -0.83932806      -0.04607731      -0.26417041       0.01177353      -0.00393260       0.00905027       0.01182874      -0.00393003       0.00907362
Cl       4.60718146       0.71209972       1.18984903      -0.03021822       0.02078794       0.05447993      -0.03021899       0.02078838       0.05447943
H        0.64405804       1.80606807       0.80069256       0.01796324      -0.01354966      -0.02610453       0.01795793      -0.01354402      -0.02609166
H        0.95334837       1.73015144      -0.94231924       0.00207871      -0.00075618      -0.00445459       0.00207686      -0.00075054      -0.00446665
N        1.17013278      -0.93453215      -1.05848410      -0.02908664      -0.06089979       0.05899276      -0.02903255      -0.06092625       0.05898156
H        1.15765299      -0.42750736      -1.93192675      -0.01863113       0.04451990      -0.05768696      -0.01864105       0.04453392      -0.05769771
H        0.66975775      -1.80894335      -1.16790811       0.04092974       0.04417736      -0.01086266       0.04092033       0.04417858      -0.01085933
C        0.72413970      -0.88425810       1.31207426       0.00694255      -0.01681647      -0.00442736       0.00694326      -0.01682220      -0.00441578
H        0.64207542      -1.96613109       1.17639435      -0.06300352      -0.00950445       0.01080994      -0.06300296      -0.00951058       0.01080596
H        1.70347838      -0.66118503       1.73940349       0.03709831      -0.03794801      -0.05142149       0.03711572      -0.03794291      -0.05141558
H       -0.06823950      -0.55771391       1.98827446       0.06643895       0.06351654       0.03745359       0.06643641       0.06351825       0.03745304
14
Properties=species:S:1:pos:R:3:mp2_forces:R:3:forces:R:3 R1=NH2 R2=CH3 R3=H R4=H lg=F nu=Cl rxn-id=2685 mp2_energy=-19942.284450410996 energy=-19942.356610265397 free_energy=-19942.284451607753 pbc="F F F"
C        0.58256168      -0.15796775      -0.03321706       0.00402267      -0.00604896      -0.01342448      -0.00101773      -0.00206952      -0.00217522
C        1.04462814       1.27995666      -0.00379727      -0.01533618      -0.01676734       0.00083820      -0.00034811      -0.00231019      -0.00339331
H        2.10742196       1.30246331       0.24994443      -0.03097203      -0.00677828      -0.00324263       0.00207576      -0.00253511      -0.01302903
F       -0.84690311      -0.13730545      -0.25839047       0.01177353      -0.00393260       0.00905027      -0.00176396      -0.00150093       0.00380815
Cl       4.49524186       0.35278978       1.36170121      -0.03021822       0.02078794       0.05447993       0.00108748       0.01795116       0.03849844
H        0.47542391       1.83426349       0.74608047       0.01796324      -0.01354966      -0.02610453       0.00755933      -0.00439822       0.00443977
H        0.88192730       1.75333620      -0.97739109       0.00207871      -0.00075618      -0.00445459      -0.01116950       0.00036581      -0.00046350
N        1.21930723      -0.87030420      -1.08369527      -0.02908664      -0.06089979       0.05899276      -0.00472592      -0.00220657      -0.00458158
H        1.04997482      -0.42606923      -1.97671022      -0.01863113       0.04451990      -0.05768696      -0.00319450       0.00078951      -0.00344438
H        0.90378806      -1.83106249      -1.11192861       0.04092974       0.04417736      -0.01086266      -0.00901108      -0.00087557      -0.00709755
C        0.80852428      -0.84460673       1.29389540       0.00694255      -0.01681647      -0.00442736       0.00428670      -0.00168948      -0.00327076
H        0.53114092      -1.90161890       1.23014437      -0.06300352      -0.00950445       0.01080994      -0.01924468       0.00312504       0.00441125
H        1.86370390      -0.75436468       1.56338172       0.03709831      -0.03794801      -0.05142149       0.01036520      -0.01965397      -0.01819104
H        0.18783407      -0.37408373       2.05998665       0.06643895       0.06351654       0.03745359       0.02510100       0.01500804       0.00448877
14
Properties=species:S:1:pos:R:3:mp2_forces:R:3:forces:R:3 R1=NH2 R2=CH3 R3=H R4=H lg=F nu=Cl rxn-id=2685 mp2_energy=-19942.284450410996 energy=-19942.33345339789 free_energy=-19942.284451607753 pbc="F F F"
C        0.58734152      -0.14845927      -0.02605722       0.00402267      -0.00604896      -0.01342448      -0.00279273      -0.00453604      -0.00422040
C        1.02662455       1.29718100      -0.00053898      -0.01533618      -0.01676734       0.00083820      -0.00170292      -0.00515799      -0.00329255
H        2.08096573       1.33533478       0.28382778      -0.03097203      -0.00677828      -0.00324263       0.00467023      -0.00735278      -0.02519157
F       -0.84098372      -0.15033339      -0.26531505       0.01177353      -0.00393260       0.00905027      -0.00289547      -0.00450381       0.00061585
Cl       4.47654446       0.19887883       1.26151505      -0.03021822       0.02078794       0.05447993       0.01570001       0.03947461       0.05612261
H        0.42406361       1.85460318       0.72049562       0.01796324      -0.01354966      -0.02610453       0.01564601      -0.01095460       0.01636414
H        0.89313206       1.75416340      -0.98629856       0.00207871      -0.00075618      -0.00445459      -0.02632323       0.00325041       0.00344359
N        1.24207015      -0.85385950      -1.06918683      -0.02908664      -0.06089979       0.05899276      -0.00382046      -0.00417259      -0.00562245
H        1.06041768      -0.42324109      -1.96633232      -0.01863113       0.04451990      -0.05768696       0.00381250       0.00152207      -0.00436976
H        0.95439612      -1.82335636      -1.08643014       0.04092974       0.04417736      -0.01086266      -0.01098028      -0.00194573      -0.01232823
C        0.81079118      -0.82817521       1.30600163       0.00694255      -0.01681647      -0.00442736       0.00193816      -0.00331584      -0.00559803
H        0.61771836      -1.90222416       1.22403020      -0.06300352      -0.00950445       0.01080994      -0.05070870       0.00172999       0.00729471
H        1.84672791      -0.67128822       1.61595384       0.03709831      -0.03794801      -0.05142149       0.01917026      -0.04024011      -0.03400026
H        0.12476540      -0.41379772       2.04833927       0.06643895       0.06351654       0.03745359       0.03828662       0.03620241       0.01078237
14
Properties=species:S:1:pos:R:3:mp2_forces:R:3:forces:R:3 R1=NH2 R2=CH3 R3=H R4=H lg=F nu=Cl rxn-id=2685 mp2_energy=-19942.284450410996 energy=-19942.292299848163 free_energy=-19942.284451607753 pbc="F F F"
C        0.59244294      -0.14015845      -0.01731978       0.00402267      -0.00604896      -0.01342448      -0.00406905      -0.00655844      -0.00631297
C        1.02623218       1.30779481       0.00212984      -0.01533618      -0.01676734       0.00083820      -0.00475539      -0.00697575      -0.00291252
H        2.07024558       1.35267122       0.32061298      -0.03097203      -0.00677828      -0.00324263       0.00742774      -0.01160910      -0.03896621
F       -0.83614713      -0.14617880      -0.26326512       0.01177353      -0.00393260       0.00905027      -0.00316679      -0.00972932      -0.00443296
Cl       4.44608349       0.10078749       1.16319619      -0.03021822       0.02078794       0.05447993       0.02788650       0.05278004       0.07027745
H        0.39506741       1.87587617       0.68953325       0.01796324      -0.01354966      -0.02610453       0.02198976      -0.01722181       0.03172418
H        0.93100362       1.74737153      -0.99582063       0.00207871      -0.00075618      -0.00445459      -0.04631094       0.00832203       0.00658693
N        1.24912035      -0.84651970      -1.05752495      -0.02908664      -0.06089979       0.05899276       0.00021636      -0.00460251      -0.00581140
H        1.06497850      -0.41935526      -1.95574857      -0.01863113       0.04451990      -0.05768696       0.01094535       0.00107703      -0.00519460
H        0.96439243      -1.81684695      -1.07013844       0.04092974       0.04417736      -0.01086266      -0.00521004      -0.00282478      -0.01435936
C        0.81063451      -0.81857393       1.31873729       0.00694255      -0.01681647      -0.00442736      -0.00041776      -0.00338529      -0.00774933
H        0.73394860      -1.90449918       1.21244173      -0.06300352      -0.00950445       0.01080994      -0.08534998      -0.00482765       0.00837835
H        1.80998047      -0.57844593       1.68715455       0.03709831      -0.03794801      -0.05142149       0.03453687      -0.05801987      -0.05119571
H        0.04659207      -0.48849675       2.02601594       0.06643895       0.06351654       0.03745359       0.04627736       0.06357541       0.01996815
14
Properties=species:S:1:pos:R:3:mp2_forces:R:3:forces:R:3 R1=NH2 R2=CH3 R3=H R4=H lg=F nu=Cl rxn-id=2685 mp2_energy=-19942.284450410996 energy=-19942.235979443627 free_energy=-19942.284451607753 pbc="F F F"
C        0.59709293      -0.13180803      -0.00878427       0.00402267      -0.00604896      -0.01342448      -0.00451230      -0.00762924      -0.00789359
C        1.03415883       1.31596704       0.00442973      -0.01533618      -0.01676734       0.00083820      -0.00711957      -0.00799732      -0.00318144
H        2.06352422       1.36512230       0.36569013      -0.03097203      -0.00677828      -0.00324263       0.01343788      -0.01674632      -0.05442878
F       -0.83300485      -0.13148524      -0.25518601       0.01177353      -0.00393260       0.00905027      -0.00273441      -0.01400683      -0.00958485
Cl       4.41233673       0.03216675       1.07518214      -0.03021822       0.02078794       0.05447993       0.03549229       0.05764447       0.07955825
H        0.37219086       1.89844918       0.64931110       0.01796324      -0.01354966      -0.02610453       0.02821469      -0.02170808       0.04904115
H        0.98945079       1.73573661      -1.00531479       0.00207871      -0.00075618      -0.00445459      -0.06784429       0.01436643       0.00632916
N        1.24561610      -0.84266870      -1.05000679      -0.02908664      -0.06089979       0.05899276       0.00466317      -0.00476069      -0.00524639
H        1.05438467      -0.41864835      -1.94823150      -0.01863113       0.04451990      -0.05768696       0.01837922       0.00091224      -0.00545012
H        0.95936431      -1.81256391      -1.05571000       0.04092974       0.04417736      -0.01086266      -0.00072582      -0.00310457      -0.01492933
C        0.81124312      -0.81371192       1.32979035       0.00694255      -0.01681647      -0.00442736      -0.00260317      -0.00193073      -0.00856748
H        0.86140189      -1.89805982       1.20082905      -0.06300352      -0.00950445       0.01080994      -0.10497001      -0.01562826       0.00669428
H        1.75904938      -0.49084253       1.76185011       0.03709831      -0.03794801      -0.05142149       0.04892659      -0.06261045      -0.05976604
H       -0.02223396      -0.58222709       1.99615502       0.06643895       0.06351654       0.03745359       0.04139573       0.08319936       0.02742517
14
Properties=species:S:1:pos:R:3:mp2_forces:R:3:forces:R:3 R1=NH2 R2=CH3 R3=H R4=H lg=F nu=Cl rxn-id=2685 mp2_energy=-19942.284450410996 energy=-19942.168558205092 free_energy=-19942.284451607753 pbc="F F F"
C        0.60161072      -0.12380542       0.00061817       0.00402267      -0.00604896      -0.01342448      -0.00473476      -0.00717308      -0.00901365
C        1.04428966       1.32356909       0.00683266      -0.01533618      -0.01676734       0.00083820      -0.00770981      -0.00819281      -0.00418024
H        2.05110667       1.38121425       0.42398102      -0.03097203      -0.00677828      -0.00324263       0.02425128      -0.02379600      -0.07024692
F       -0.83091474      -0.11355246      -0.24168121       0.01177353      -0.00393260       0.00905027      -0.00223494      -0.01455285      -0.01444127
Cl       4.37325799      -0.02888296       0.98779430      -0.03021822       0.02078794       0.05447993       0.04077415       0.05571434       0.08541053
H        0.34467887       1.92286708       0.59362593       0.01796324      -0.01354966      -0.02610453       0.03435303      -0.02297520       0.06736021
H        1.06648562       1.71765971      -1.01359021       0.00207871      -0.00075618      -0.00445459      -0.08819923       0.02089229       0.00129922
N        1.23685157      -0.84012979      -1.04390402      -0.02908664      -0.06089979       0.05899276       0.00757163      -0.00471195      -0.00450950
H        1.03985294      -0.41653477      -1.94106701      -0.01863113       0.04451990      -0.05768696       0.02187898      -0.00055344      -0.00542624
H        0.94573237      -1.80859796      -1.04446257       0.04092974       0.04417736      -0.01086266       0.00210154      -0.00283523      -0.01338246
C        0.81438809      -0.81169828       1.34047960       0.00694255      -0.01681647      -0.00442736      -0.00509744       0.00009652      -0.00832191
H        0.99303286      -1.87936616       1.19364792      -0.06300352      -0.00950445       0.01080994      -0.10387798      -0.02426936       0.00300630
H        1.69820030      -0.41151378       1.83541458       0.03709831      -0.03794801      -0.05142149       0.05381090      -0.05420633      -0.05711289
H       -0.07399792      -0.68580226       1.96231512       0.06643895       0.06351654       0.03745359       0.02711266       0.08656310       0.02955883
14
Properties=species:S:1:pos:R:3:mp2_forces:R:3:forces:R:3 R1=NH2 R2=CH3 R3=H R4=H lg=F nu=Cl rxn-id=2685 mp2_energy=-19942.284450410996 energy=-19942.10188841849 free_energy=-19942.284451607753 pbc="F F F"
C        0.60552024      -0.11791074       0.01076908       0.00402267      -0.00604896      -0.01342448      -0.00530352      -0.00566108      -0.00968856
C        1.05498777       1.32937777       0.00992015      -0.01533618      -0.01676734       0.00083820      -0.00697384      -0.00779670      -0.00519492
H        2.02957521       1.40177186       0.49351688      -0.03097203      -0.00677828      -0.00324263       0.03778480      -0.03173759      -0.08161968
F       -0.82996214      -0.09654410      -0.22350290       0.01177353      -0.00393260       0.00905027      -0.00210861      -0.01174250      -0.01830900
Cl       4.33524502      -0.07326724       0.90299208      -0.03021822       0.02078794       0.05447993       0.04569917       0.04995030       0.08909049
H        0.31425706       1.94608082       0.52316358       0.01796324      -0.01354966      -0.02610453       0.03722924      -0.02086572       0.08324843
H        1.15872663       1.69249006      -1.01645002       0.00207871      -0.00075618      -0.00445459      -0.10266229       0.02598306      -0.00793345
N        1.22461198      -0.83982410      -1.03846872      -0.02908664      -0.06089979       0.05899276       0.00836855      -0.00440905      -0.00407549
H        1.02907269      -0.41100846      -1.93341572      -0.01863113       0.04451990      -0.05768696       0.01960890      -0.00324595      -0.00555221
H        0.92176002      -1.80476474      -1.03949946       0.04092974       0.04417736      -0.01086266       0.00426921      -0.00262430      -0.01023895
C        0.81933914      -0.81306486       1.35028940       0.00694255      -0.01681647      -0.00442736      -0.00750865       0.00180917      -0.00770093
H        1.10826559      -1.85389277       1.19151275      -0.06300352      -0.00950445       0.01080994      -0.08932258      -0.02565915      -0.00035378
H        1.63789719      -0.35116449       1.89861310       0.03709831      -0.03794801      -0.05142149       0.04782387      -0.04026096      -0.04835200
H       -0.10472138      -0.78285272       1.93056407       0.06643895       0.06351654       0.03745359       0.01309576       0.07626048       0.02668006
14
Properties=species:S:1:pos:R:3:mp2_forces:R:3:forces:R:3 R1=NH2 R2=CH3 R3=H R4=H lg=F nu=Cl rxn-id=2685 mp2_energy=-19942.284450410996 energy=-19942.04997056564 free_energy=-19942.284451607753 pbc="F F F"
C        0.60881781      -0.11422259       0.01911522       0.00402267      -0.00604896      -0.01342448      -0.00695287      -0.00449925      -0.00979787
C        1.06287663       1.33387515       0.01348605      -0.01533618      -0.01676734       0.00083820      -0.00673568      -0.00751167      -0.00538092
H        2.00053216       1.42511488       0.56038301      -0.03097203      -0.00677828      -0.00324263       0.05082254      -0.03922402      -0.08296866
F       -0.82941862      -0.08478920      -0.20587462       0.01177353      -0.00393260       0.00905027      -0.00308286      -0.00963561      -0.02131667
Cl       4.30558983      -0.09983508       0.83558174      -0.03021822       0.02078794       0.05447993       0.05043953       0.04500948       0.09057661
H        0.28651199       1.96331483       0.45262439       0.01796324      -0.01354966      -0.02610453       0.03240038      -0.01459403       0.09296998
H        1.24636765       1.66794894      -1.01096091       0.00207871      -0.00075618      -0.00445459      -0.10706773       0.02718348      -0.02084432
N        1.21365446      -0.83921149      -1.03539491      -0.02908664      -0.06089979       0.05899276       0.00802835      -0.00414106      -0.00353239
H        1.01650184      -0.40675169      -1.92819158      -0.01863113       0.04451990      -0.05768696       0.01698062      -0.00392861      -0.00529217
H        0.90411644      -1.80207283      -1.03608887       0.04092974       0.04417736      -0.01086266       0.00390990      -0.00262461      -0.00851863
C        0.82508162      -0.81621154       1.35669774       0.00694255      -0.01681647      -0.00442736      -0.00940859       0.00281291      -0.00692710
H        1.18235277      -1.83399540       1.19093837      -0.06300352      -0.00950445       0.01080994      -0.07463747      -0.02422619      -0.00306707
H        1.59752673      -0.31904189       1.93891504       0.03709831      -0.03794801      -0.05142149       0.04107595      -0.02848137      -0.04137398
H       -0.11593631      -0.84869579       1.90877361       0.06643895       0.06351654       0.03745359       0.00422793       0.06386056       0.02547319
14
Properties=species:S:1:pos:R:3:mp2_forces:R:3:forces:R:3 R1=NH2 R2=CH3 R3=H R4=H lg=F nu=Cl rxn-id=2685 mp2_energy=-19942.284450410996 energy=-19941.97417811321 free_energy=-19942.284451607753 pbc="F F F"
C        0.61591018      -0.11015395       0.03213456       0.00402267      -0.00604896      -0.01342448      -0.01573576      -0.00301206      -0.00943917
C        1.07440361       1.34055123       0.01918166      -0.01533618      -0.01676734       0.00083820      -0.00930703      -0.00656665      -0.00434233
H        1.93617772       1.47232039       0.66939994      -0.03097203      -0.00677828      -0.00324263       0.06390599      -0.04874190      -0.06753562
F       -0.82757853      -0.06995586      -0.17352022       0.01177353      -0.00393260       0.00905027      -0.00840352      -0.00999864      -0.02624174
Cl       4.25414037      -0.13323262       0.73289928      -0.03021822       0.02078794       0.05447993       0.06291866       0.03846502       0.08984743
H        0.24726745       1.98260613       0.32634579       0.01796324      -0.01354966      -0.02610453       0.01895823       0.00786258       0.09262461
H        1.39226544       1.62666427      -0.98558574       0.00207871      -0.00075618      -0.00445459      -0.09404664       0.01782073      -0.03846823
N        1.19621160      -0.83805449      -1.03233915      -0.02908664      -0.06089979       0.05899276       0.00526829      -0.00334154      -0.00245713
H        0.99663857      -0.39892292      -1.92126947      -0.01863113       0.04451990      -0.05768696       0.01052344      -0.00463690      -0.00443900
H        0.87731844      -1.79788345      -1.03309669       0.04092974       0.04417736      -0.01086266       0.00123129      -0.00208916      -0.00778283
C        0.83755107      -0.82277162       1.36515798       0.00694255      -0.01681647      -0.00442736      -0.01307712       0.00360314      -0.00608134
H        1.27554395      -1.80667577       1.19259198      -0.06300352      -0.00950445       0.01080994      -0.05133555      -0.01479429      -0.01042969
H        1.54810006      -0.28707698       1.98947670       0.03709831      -0.03794801      -0.05142149       0.02952892      -0.01276401      -0.03574506
H       -0.11937492      -0.93198806       1.87862765       0.06643895       0.06351654       0.03745359      -0.00042919       0.03819369       0.03049010
14
Properties=species:S:1:pos:R:3:mp2_forces:R:3:forces:R:3 R1=NH2 R2=CH3 R3=H R4=H lg=F nu=Cl rxn-id=2685 mp2_energy=-19942.284450410996 energy=-19941.85647246765 free_energy=-19942.284451607753 pbc="F F F"
C        0.64914434      -0.10607857       0.05657540       0.00402267      -0.00604896      -0.01342448      -0.12319245       0.00567851      -0.01188194
C        1.10118695       1.35141998       0.02716235      -0.01533618      -0.01676734       0.00083820      -0.03931262      -0.00269211       0.00100556
H        1.76853991       1.59039397       0.85032468      -0.03097203      -0.00677828      -0.00324263       0.03446992      -0.07529535      -0.02547524
F       -0.81342527      -0.04290860      -0.09486234       0.01177353      -0.00393260       0.00905027       0.02019045      -0.03860480      -0.05349929
Cl       4.12344063      -0.18113474       0.54248361      -0.03021822       0.02078794       0.05447993       0.12982880       0.03703023       0.09159977
H        0.20231348       1.96739671       0.06836193       0.01796324      -0.01354966      -0.02610453       0.03852152       0.14754970       0.03524713
H        1.65460215       1.56434224      -0.88804963       0.00207871      -0.00075618      -0.00445459      -0.03475403      -0.05532285      -0.00959865
N        1.16630785      -0.83515828      -1.03089236      -0.02908664      -0.06089979       0.05899276       0.01291867      -0.00128296      -0.00126661
H        0.96653941      -0.38053285      -1.91146013      -0.01863113       0.04451990      -0.05768696      -0.01026487      -0.02176426      -0.01080887
H        0.83611340      -1.79071284      -1.02913070       0.04092974       0.04417736      -0.01086266      -0.01167348       0.00336864      -0.02815397
C        0.87325419      -0.83800256       1.37840107       0.00694255      -0.01681647      -0.00442736      -0.04053018       0.00877474      -0.00526246
H        1.39360182      -1.78085608       1.21044913      -0.06300352      -0.00950445       0.01080994      -0.00777319       0.03331692      -0.05658098
H        1.49199020      -0.26833540       2.06644950       0.03709831      -0.03794801      -0.05142149       0.01906898       0.01681029      -0.05955410
H       -0.10903405      -1.02440669       1.81419176       0.06643895       0.06351654       0.03745359       0.01250247      -0.05756671       0.13422963
14
Properties=species:S:1:pos:R:3:mp2_forces:R:3:forces:R:3 R1=NH2 R2=CH3 R3=H R4=H lg=F nu=Cl rxn-id=2685 mp2_energy=-19942.284450410996 energy=-19941.35124601665 free_energy=-19942.284451607753 pbc="F F F"
C        0.80952869      -0.11452560       0.07411595       0.00402267      -0.00604896      -0.01342448      -1.49743193       0.10935552      -0.07594254
C        1.15378850       1.35383964       0.02450049      -0.01533618      -0.01676734       0.00083820      -0.19454978       0.04982466       0.01005908
H        1.70002523       1.69720747       0.89802446      -0.03097203      -0.00677828      -0.00324263       0.02214679      -0.16194981      -0.01464184
F       -0.84647300       0.00926989      -0.01103353       0.01177353      -0.00393260       0.00905027       1.29959752      -0.24525901      -0.08934012
Cl       3.95589561      -0.21794316       0.42561226      -0.03021822       0.02078794       0.05447993       0.25991357       0.04103838       0.10954268
H        0.15398977       1.77391020      -0.01234538       0.01796324      -0.01354966      -0.02610453       0.12646984       0.85174129      -0.03083563
H        1.72848156       1.62304908      -0.86163391       0.00207871      -0.00075618      -0.00445459      -0.00089255      -0.18832095       0.03422509
N        1.13826428      -0.83251504      -1.03011262      -0.02908664      -0.06089979       0.05899276       0.14955335      -0.06693303      -0.09094309
H        0.97766741      -0.34593031      -1.89748218      -0.01863113       0.04451990      -0.05768696      -0.00146313      -0.15416436      -0.11199256
H        0.83925597      -1.79412063      -0.99767494       0.04092974       0.04417736      -0.01086266       0.00705675      -0.02487977      -0.18751226
C        0.93117219      -0.85269724       1.38512367       0.00694255      -0.01681647      -0.00442736      -0.20775449       0.02070271       0.02649415
H        1.40538085      -1.82861125       1.27991476      -0.06300352      -0.00950445       0.01080994       0.02267534       0.12611578      -0.16333456
H        1.47633372      -0.29546718       2.14138942       0.03709831      -0.03794801      -0.05142149       0.02929974       0.05693060      -0.13960511
H       -0.11873576      -0.95003958       1.64160582       0.06643895       0.06351654       0.03745359      -0.01462102      -0.41420201       0.72382671
14
Properties=species:S:1:pos:R:3:mp2_forces:R:3:forces:R:3 R1=NH2 R2=CH3 R3=H R4=H lg=F nu=Cl rxn-id=2685 mp2_energy=-19942.284450410996 energy=-19940.665740686047 free_energy=-19942.284451607753 pbc="F F F"
C        0.99177692      -0.12654087       0.08560330       0.00402267      -0.00604896      -0.01342448      -0.64038501       0.02627590      -0.06437417
C        1.17721769       1.34729926       0.02280253      -0.01533618      -0.01676734       0.00083820      -0.11289629       0.06649843      -0.00868127
H        1.69648586       1.71708933       0.90023000      -0.03097203      -0.00677828      -0.00324263       0.03509037      -0.10256303      -0.02069305
F       -1.00570843       0.03907469       0.00120606       0.01177353      -0.00393260       0.00905027       0.60011738      -0.16253000      -0.08843653
Cl       3.92449047      -0.22265528       0.41205001      -0.03021822       0.02078794       0.05447993       0.13405432       0.02462788       0.06174300
H        0.13862363       1.67019038      -0.00989671       0.01796324      -0.01354966      -0.02610453       0.02972907       0.53703298      -0.04193366
H        1.72963769       1.64556025      -0.86534401       0.00207871      -0.00075618      -0.00445459       0.03985468      -0.11070742       0.01471889
N        1.11929845      -0.82573032      -1.02138871      -0.02908664      -0.06089979       0.05899276      -0.01157401       0.00684143       0.00439337
H        0.97876309      -0.32710954      -1.88317302      -0.01863113       0.04451990      -0.05768696       0.01872590      -0.04780210      -0.07156522
H        0.83894832      -1.79035099      -0.97504614       0.04092974       0.04417736      -0.01086266       0.01219507      -0.03925902      -0.07508701
C        0.95636970      -0.85540812       1.38140001       0.00694255      -0.01681647      -0.00442736      -0.12910404      -0.01562843       0.04064807
H        1.40235356      -1.84420866       1.29962454      -0.06300352      -0.00950445       0.01080994       0.04968086       0.06376878      -0.09466885
H        1.47322724      -0.30250430       2.15831786       0.03709831      -0.03794801      -0.05142149       0.03693300       0.02436228      -0.09465401
H       -0.11690917      -0.89927953       1.55361855       0.06643895       0.06351654       0.03745359      -0.06242128      -0.27091768       0.43859044
14
Properties=species:S:1:pos:R:3:mp2_forces:R:3:forces:R:3 R1=NH2 R2=CH3 R3=H R4=H lg=F nu=Cl rxn-id=2685 mp2_energy=-19942.284450410996 energy=-19940.575195824975 free_energy=-19942.284451607753 pbc="F F F"
C        1.26192589      -0.14778295       0.09671004       0.00402267      -0.00604896      -0.01342448      -0.01252892      -0.01329203      -0.02340872
C        1.22538516       1.32143475       0.02752959      -0.01533618      -0.01676734       0.00083820      -0.00115059       0.00373278      -0.00061001
H        1.67840372       1.76052284       0.90910239      -0.03097203      -0.00677828      -0.00324263      -0.00366535      -0.00300058      -0.00055396
F       -1.26091830       0.10667174       0.04547461       0.01177353      -0.00393260       0.00905027      -0.00448500      -0.00600349       0.02696306
Cl       3.86896316      -0.23207445       0.38576311      -0.03021822       0.02078794       0.05447993       0.01186634       0.00125886       0.00283269
H        0.12596427       1.44499442       0.00355790       0.01796324      -0.01354966      -0.02610453      -0.00090907       0.00783334      -0.00545201