16
Properties=species:S:1:pos:R:3:mp2_forces:R:3:forces:R:3 R1=NH2 R2=CH3 R3=H R4=NO2 lg=F nu=F rxn-id=2687 mp2_energy=-15700.35039790221 energy=-15700.35039790221 free_energy=-15700.35039790221 pbc="F F F"
C        0.75735379      -0.15340694      -0.13805256       0.03433475      -0.06417280      -0.04626763       0.03433475      -0.06417280      -0.04626763
C        1.34106202       1.22904215      -0.40282971      -0.00596243       0.00256658      -0.00472650      -0.00596243       0.00256658      -0.00472650
H        1.64988413       1.27747204      -1.44319826      -0.00959561       0.00105109       0.00376976      -0.00959561       0.00105109       0.00376976
F       -0.48012922      -0.22585102      -0.82253148      -0.01362459      -0.00655727       0.00389798      -0.01362459      -0.00655727       0.00389798
F        3.40887369      -0.01581696       0.87861294      -0.02200879       0.01086873      -0.00403947      -0.02200879       0.01086873      -0.00403947
H        2.19484722       1.32184878       0.28203352       0.03094673       0.00523302      -0.04021763       0.03094673       0.00523302      -0.04021763
N        1.67290575      -1.06731578      -0.75848799      -0.02414470       0.00182402       0.01586671      -0.02414470       0.00182402       0.01586671
H        1.36655487      -2.00484649      -0.50934750       0.08021374       0.01981411       0.02408408       0.08021374       0.01981411       0.02408408
H        2.55990796      -0.85495621      -0.22450222      -0.08114893       0.00252370       0.00219347      -0.08114893       0.00252370       0.00219347
C        0.47659894      -0.42495284       1.34826847      -0.00621279      -0.00116817       0.00640190      -0.00621279      -0.00116817       0.00640190
H        1.07144023      -1.27902773       1.66629941       0.00483795       0.00207869       0.03262810       0.00483795       0.00207869       0.03262810
H        0.76794135       0.41607545       1.97001176       0.01130890       0.02017901       0.00937517       0.01130890       0.02017901       0.00937517
H       -0.58595229      -0.62574662       1.50073995      -0.03642338       0.00334043      -0.05094111      -0.03642338       0.00334043      -0.05094111
N        0.33694342       2.30164146      -0.22637159       0.01546101      -0.00030487       0.04345218       0.01546101      -0.00030487       0.04345218
O       -0.11670658       2.50909085       0.90052342       0.03216687      -0.03484471       0.02190734       0.03216687      -0.03484471       0.02190734
O        0.00245325       2.94254429      -1.22505659      -0.01014872       0.03756842      -0.01738435      -0.01014872       0.03756842      -0.01738435
16
Properties=species:S:1:pos:R:3:mp2_forces:R:3:forces:R:3 R1=NH2 R2=CH3 R3=H R4=NO2 lg=F nu=F rxn-id=2687 mp2_energy=-15700.35039790221 energy=-15700.368582764571 free_energy=-15700.35039790221 pbc="F F F"
C        0.77025474      -0.14943911      -0.14188414       0.03433475      -0.06417280      -0.04626763      -0.01206385      -0.00696171      -0.00523050
C        1.34700943       1.23539626      -0.41620190      -0.00596243       0.00256658      -0.00472650      -0.00715225      -0.00956380      -0.00420717
H        1.64670431       1.28962997      -1.45896062      -0.00959561       0.00105109       0.00376976      -0.01475025      -0.00940461      -0.00650512
F       -0.47359399      -0.22235761      -0.81442759      -0.01362459      -0.00655727       0.00389798      -0.00874385      -0.01074048      -0.01033813
F        3.32612724      -0.06331840       0.97977059      -0.02200879       0.01086873      -0.00403947       0.01649930       0.02196585      -0.02571476
H        2.20130262       1.34460976       0.26325741       0.03094673       0.00523302      -0.04021763       0.00232483      -0.02629029      -0.01047915
N        1.67955725      -1.06097167      -0.77630954      -0.02414470       0.00182402       0.01586671      -0.00042882      -0.00189986       0.00531377
H        1.35059725      -2.00113485      -0.57260736       0.08021374       0.01981411       0.02408408       0.03664457      -0.00749680       0.05271310
H        2.54725070      -0.88657588      -0.20749665      -0.08114893       0.00252370       0.00219347       0.00711398       0.04026592      -0.01236270
C        0.50038374      -0.41461537       1.34710873      -0.00621279      -0.00116817       0.00640190      -0.01659172      -0.00506239      -0.00601798
H        1.10803328      -1.25521422       1.67732072       0.00483795       0.00207869       0.03262810      -0.01989726      -0.00705915      -0.00370498
H        0.79104352       0.42934477       1.96762256       0.01130890       0.02017901       0.00937517      -0.01690556      -0.00442636      -0.00701162
H       -0.56313261      -0.61928907       1.49343703      -0.03642338       0.00334043      -0.05094111      -0.01668172      -0.00455575      -0.00650405
N        0.33039302       2.29536582      -0.22790206       0.01546101      -0.00030487       0.04345218       0.01086553       0.00427390       0.01139366
O       -0.08902144       2.51233965       0.90994795       0.03216687      -0.03484471       0.02190734       0.02551557       0.00843181       0.01344954
O       -0.04893052       2.91202437      -1.22656356      -0.01014872       0.03756842      -0.01738435       0.01425148       0.01852370       0.01520608
16
Properties=species:S:1:pos:R:3:mp2_forces:R:3:forces:R:3 R1=NH2 R2=CH3 R3=H R4=NO2 lg=F nu=F rxn-id=2687 mp2_energy=-15700.35039790221 energy=-15700.343355302828 free_energy=-15700.35039790221 pbc="F F F"
C        0.78709630      -0.13944215      -0.13449174       0.03433475      -0.06417280      -0.04626763      -0.02909442      -0.01053870      -0.01338524
C        1.35988090       1.24917442      -0.40469178      -0.00596243       0.00256658      -0.00472650      -0.01407502      -0.01663522      -0.00603567
H        1.67913676       1.30505772      -1.44146590      -0.00959561       0.00105109       0.00376976      -0.01742229      -0.01395434      -0.00686669
F       -0.46106550      -0.20296984      -0.79993956      -0.01362459      -0.00655727       0.00389798      -0.02768132      -0.01081408      -0.01318548
F        3.30810972      -0.08998708       1.00488857      -0.02200879       0.01086873      -0.00403947       0.02257025       0.00095484      -0.03258673
H        2.19613558       1.38097448       0.28972347       0.03094673       0.00523302      -0.04021763      -0.00296338      -0.05200477      -0.00923771
N        1.67705745      -1.05987039      -0.78569114      -0.02414470       0.00182402       0.01586671      -0.00675008       0.00402650       0.00122428
H        1.29549873      -1.99169711      -0.64808854       0.08021374       0.01981411       0.02408408       0.07223868      -0.02035233       0.10516342
H        2.53710203      -0.94549127      -0.19689997      -0.08114893       0.00252370       0.00219347       0.01130757       0.09873127      -0.02417679
C        0.52283096      -0.40696418       1.35561660      -0.00621279      -0.00116817       0.00640190      -0.02421739      -0.00975816      -0.01263130
H        1.13561830      -1.24367502       1.68466944       0.00483795       0.00207869       0.03262810      -0.01885254      -0.00757886      -0.01555236
H        0.81226384       0.43783208       1.97610458       0.01130890       0.02017901       0.00937517      -0.02315970      -0.00691550      -0.01715348
H       -0.54047197      -0.61274130       1.50264398      -0.03642338       0.00334043      -0.05094111      -0.02159759      -0.01469572      -0.00297460
N        0.31429412       2.28659186      -0.24166128       0.01546101      -0.00030487       0.04345218       0.01727981       0.00994919       0.01336249
O       -0.12448424       2.50424651       0.88860739       0.03216687      -0.03484471       0.02190734       0.03696545       0.02069594       0.01643321
O       -0.07502445       2.87475571      -1.25321257      -0.01014872       0.03756842      -0.01738435       0.02545197       0.02888993       0.01760266
16
Properties=species:S:1:pos:R:3:mp2_forces:R:3:forces:R:3 R1=NH2 R2=CH3 R3=H R4=NO2 lg=F nu=F rxn-id=2687 mp2_energy=-15700.35039790221 energy=-15700.30351737484 free_energy=-15700.35039790221 pbc="F F F"
C        0.80690422      -0.13250216      -0.12468604       0.03433475      -0.06417280      -0.04626763      -0.05095439      -0.01271605      -0.02548165
C        1.36904095       1.26096484      -0.39806649      -0.00596243       0.00256658      -0.00472650      -0.02073288      -0.02337810      -0.00776461
H        1.69655132       1.31521896      -1.43227728      -0.00959561       0.00105109       0.00376976      -0.01432703      -0.01313554      -0.00544545
F       -0.44284510      -0.19718573      -0.78748695      -0.01362459      -0.00655727       0.00389798      -0.05061560      -0.00861996      -0.01815199
F        3.28413622      -0.08686808       1.03299457      -0.02200879       0.01086873      -0.00403947       0.04391347      -0.03125039      -0.03442570
H        2.19409422       1.41687579       0.30292510       0.03094673       0.00523302      -0.04021763      -0.00985803      -0.08289726      -0.00228057
N        1.68074137      -1.06175903      -0.79003005      -0.02414470       0.00182402       0.01586671      -0.01449095       0.01259941      -0.00388320
H        1.24391290      -1.97659851      -0.72908266       0.08021374       0.01981411       0.02408408       0.10141596      -0.04589647       0.15389426
H        2.52776621      -1.01643725      -0.18413740      -0.08114893       0.00252370       0.00219347       0.02111052       0.16948415      -0.02895556
C        0.54323527      -0.40068998       1.36552678      -0.00621279      -0.00116817       0.00640190      -0.03258538      -0.01118545      -0.02103914
H        1.14764430      -1.24326630       1.69450166       0.00483795       0.00207869       0.03262810      -0.01839176      -0.00631248      -0.03354361
H        0.84164270       0.43968893       1.98776308       0.01130890       0.02017901       0.00937517      -0.02197072      -0.00765749      -0.03009513
H       -0.52276670      -0.59485498       1.50991349      -0.03642338       0.00334043      -0.05094111      -0.02741047      -0.01747826       0.00707789
N        0.30065698       2.27919547      -0.25242675       0.01546101      -0.00030487       0.04345218       0.02127971       0.01506627       0.00988693
O       -0.15539836       2.49139865       0.87191677       0.03216687      -0.03484471       0.02190734       0.04153768       0.02911748       0.01993601
O       -0.09133799       2.85261382      -1.27123626      -0.01014872       0.03756842      -0.01738435       0.03207986       0.03426014       0.02027152
16
Properties=species:S:1:pos:R:3:mp2_forces:R:3:forces:R:3 R1=NH2 R2=CH3 R3=H R4=NO2 lg=F nu=F rxn-id=2687 mp2_energy=-15700.35039790221 energy=-15700.239655445237 free_energy=-15700.35039790221 pbc="F F F"
C        0.83586524      -0.12139448      -0.10893662       0.03433475      -0.06417280      -0.04626763      -0.08493795      -0.02116784      -0.04647994
C        1.38220211       1.27674408      -0.39578051      -0.00596243       0.00256658      -0.00472650      -0.03349244      -0.03489041      -0.00316743
H        1.70375720       1.32168428      -1.43247745      -0.00959561       0.00105109       0.00376976      -0.00277677      -0.00325085       0.00728660
F       -0.41522944      -0.18316131      -0.77368913      -0.01362459      -0.00655727       0.00389798      -0.08175118      -0.02314381      -0.03011590
F        3.26401612      -0.08709287       1.05236968      -0.02200879       0.01086873      -0.00403947       0.06883383      -0.04894552      -0.01714854
H        2.20209513       1.47149341       0.29885829       0.03094673       0.00523302      -0.04021763      -0.02848395      -0.14023733       0.02957246
N        1.68813710      -1.06546337      -0.78580150      -0.02414470       0.00182402       0.01586671      -0.02659418       0.01873994      -0.01787718
H        1.18760653      -1.94785987      -0.80741222       0.08021374       0.01981411       0.02408408       0.12231928      -0.08904927       0.18063122
H        2.51496349      -1.10476340      -0.16262767      -0.08114893       0.00252370       0.00219347       0.03791793       0.24170851      -0.04199660
C        0.56211800      -0.39533882       1.37797930      -0.00621279      -0.00116817       0.00640190      -0.04027362      -0.00976919      -0.03302045
H        1.15957183      -1.24222867       1.70817514       0.00483795       0.00207869       0.03262810      -0.00607525       0.00749504      -0.05012419
H        0.85180872       0.43886897       2.01269668       0.01130890       0.02017901       0.00937517      -0.00894754       0.00478244      -0.06559810
H       -0.50664356      -0.58949662       1.50269945      -0.03642338       0.00334043      -0.05094111      -0.03079388      -0.01743183       0.03652472
N        0.28789331       2.27115153      -0.26258011       0.01546101      -0.00030487       0.04345218       0.02549299       0.02441770       0.00061058
O       -0.18181833       2.47146595       0.85799587       0.03216687      -0.03484471       0.02190734       0.04358014       0.05284710       0.02707239
O       -0.11236492       2.83118561      -1.28535763      -0.01014872       0.03756842      -0.01738435       0.04598259       0.03789530       0.02383036
16
Properties=species:S:1:pos:R:3:mp2_forces:R:3:forces:R:3 R1=NH2 R2=CH3 R3=H R4=NO2 lg=F nu=F rxn-id=2687 mp2_energy=-15700.35039790221 energy=-15700.1611173693 free_energy=-15700.35039790221 pbc="F F F"
C        0.86612484      -0.11388274      -0.09258787       0.03433475      -0.06417280      -0.04626763      -0.12485024      -0.02429891      -0.06874182
C        1.39450114       1.28956065      -0.39323842      -0.00596243       0.00256658      -0.00472650      -0.04605790      -0.04353304      -0.00390395
H        1.70728982       1.32418889      -1.43312728      -0.00959561       0.00105109       0.00376976       0.00694930       0.00900549       0.01365741
F       -0.38474188      -0.17437256      -0.76476214      -0.01362459      -0.00655727       0.00389798      -0.11671803      -0.03415434      -0.03586038
F        3.24704461      -0.07111693       1.05281297      -0.02200879       0.01086873      -0.00403947       0.10047498      -0.06564935       0.01594083
H        2.21107386       1.52429166       0.29057985       0.03094673       0.00523302      -0.04021763      -0.03978015      -0.21046225       0.06287309
N        1.69795815      -1.07267865      -0.77833145      -0.02414470       0.00182402       0.01586671      -0.03949796       0.02834513      -0.02804326
H        1.14331437      -1.91599630      -0.87367092       0.08021374       0.01981411       0.02408408       0.13303251      -0.13055219       0.18507203
H        2.50196289      -1.19329716      -0.14654409      -0.08114893       0.00252370       0.00219347       0.05220541       0.31243090      -0.03209414
C        0.57484575      -0.39094376       1.38978274      -0.00621279      -0.00116817       0.00640190      -0.04240621      -0.00652641      -0.04457796
H        1.15836931      -1.24493845       1.72680614       0.00483795       0.00207869       0.03262810       0.01313549       0.01889048      -0.07562383
H        0.85526845       0.43757698       2.03589981       0.01130890       0.02017901       0.00937517       0.01202400       0.01536906      -0.09457031
H       -0.49755350      -0.58030972       1.49131815      -0.03642338       0.00334043      -0.05094111      -0.03079895      -0.01807080       0.06495533
N        0.27810445       2.26218778      -0.26811616       0.01546101      -0.00030487       0.04345218       0.02653514       0.03092919       0.02288288
O       -0.19966019       2.45174078       0.85109206       0.03216687      -0.03484471       0.02190734       0.04753243       0.07058750       0.01114100
O       -0.12992353       2.81378394      -1.29180183      -0.01014872       0.03756842      -0.01738435       0.04822018       0.04768954       0.00689308
16
Properties=species:S:1:pos:R:3:mp2_forces:R:3:forces:R:3 R1=NH2 R2=CH3 R3=H R4=NO2 lg=F nu=F rxn-id=2687 mp2_energy=-15700.35039790221 energy=-15700.046573039113 free_energy=-15700.35039790221 pbc="F F F"
C        0.90454033      -0.10814142      -0.07144143       0.03433475      -0.06417280      -0.04626763      -0.19226515      -0.02274336      -0.10246878
C        1.40830447       1.30229152      -0.38954548      -0.00596243       0.00256658      -0.00472650      -0.06116883      -0.05109707      -0.01011629
H        1.70836524       1.32243492      -1.43359227      -0.00959561       0.00105109       0.00376976       0.02348161       0.02622774       0.01543807
F       -0.34849273      -0.16666164      -0.75307178      -0.01362459      -0.00655727       0.00389798      -0.16248385      -0.03913532      -0.04308327
F        3.21081647      -0.04317134       1.04701065      -0.02200879       0.01086873      -0.00403947       0.19438194      -0.08781389       0.05884777
H        2.21991332       1.58725328       0.27807423       0.03094673       0.00523302      -0.04021763      -0.03968154      -0.30055896       0.09979322
N        1.70944950      -1.08283940      -0.77235985      -0.02414470       0.00182402       0.01586671      -0.05822133       0.04367272      -0.02717519
H        1.10043735      -1.87591917      -0.93529596       0.08021374       0.01981411       0.02408408       0.14725948      -0.17786352       0.16083578
H        2.48648690      -1.29423364      -0.14238327      -0.08114893       0.00252370       0.00219347       0.05087808       0.39723293       0.02137480
C        0.58918278      -0.38942393       1.40398835      -0.00621279      -0.00116817       0.00640190      -0.05041516       0.00078400      -0.06009755
H        1.15465866      -1.25080405       1.75388159       0.00483795       0.00207869       0.03262810       0.03926108       0.03525058      -0.12128431
H        0.85485854       0.43456141       2.06176440       0.01130890       0.02017901       0.00937517       0.03516130       0.02393136      -0.12055874
H       -0.48693662      -0.57332267       1.47385445      -0.03642338       0.00334043      -0.05094111      -0.03931906      -0.02369507       0.10889992
N        0.26986172       2.25222993      -0.27303487       0.01546101      -0.00030487       0.04345218       0.02567169       0.03849547       0.05304837
O       -0.21418279       2.43335414       0.84521670       0.03216687      -0.03484471       0.02190734       0.04962385       0.07944488      -0.01458342
O       -0.14328461       2.79818647      -1.29695387      -0.01014872       0.03756842      -0.01738435       0.03783587       0.05786751      -0.01887037
16
Properties=species:S:1:pos:R:3:mp2_forces:R:3:forces:R:3 R1=NH2 R2=CH3 R3=H R4=NO2 lg=F nu=F rxn-id=2687 mp2_energy=-15700.35039790221 energy=-15699.875182382788 free_energy=-15700.35039790221 pbc="F F F"
C        0.95550429      -0.10152416      -0.04373099       0.03433475      -0.06417280      -0.04626763      -0.32285807      -0.02451983      -0.17093869
C        1.42509080       1.31638013      -0.38672107      -0.00596243       0.00256658      -0.00472650      -0.07622170      -0.05738054      -0.01460466
H        1.70425438       1.31494775      -1.43680936      -0.00959561       0.00105109       0.00376976       0.04282725       0.05615110       0.01508616
F       -0.30515454      -0.15442337      -0.74069388      -0.01362459      -0.00655727       0.00389798      -0.19385565      -0.05070019      -0.03415853
F        3.15901792      -0.02020777       1.02866686      -0.02200879       0.01086873      -0.00403947       0.35913725      -0.09488357       0.13181247
H        2.23033479       1.66806849       0.25256276       0.03094673       0.00523302      -0.04021763      -0.02488485      -0.40241429       0.15020861
N        1.72430582      -1.09445209      -0.76502362      -0.02414470       0.00182402       0.01586671      -0.09197695       0.05889859      -0.03372371
H        1.06030249      -1.82914429      -0.97560608       0.08021374       0.01981411       0.02408408       0.16678003      -0.24103237       0.09774838
H        2.47326515      -1.39807446      -0.14839416      -0.08114893       0.00252370       0.00219347       0.02824276       0.49272082       0.10407132
C        0.60316154      -0.38999056       1.42029491      -0.00621279      -0.00116817       0.00640190      -0.06378998       0.00729755      -0.08458000
H        1.14363338      -1.26213771       1.78468624       0.00483795       0.00207869       0.03262810       0.07130234       0.05810616      -0.16784328
H        0.84612938       0.42712194       2.09531599       0.01130890       0.02017901       0.00937517       0.06504826       0.02964589      -0.15681082
H       -0.47606274      -0.56663737       1.44448599      -0.03642338       0.00334043      -0.05094111      -0.06129940      -0.03595617       0.17813421
N        0.26207781       2.24012627      -0.27606470       0.01546101      -0.00030487       0.04345218       0.03264497       0.06245958       0.02332792
O       -0.22656492       2.41056196       0.84158246       0.03216687      -0.03484471       0.02190734       0.03767796       0.08975715      -0.01403047
O       -0.15531702       2.78517967      -1.29843979      -0.01014872       0.03756842      -0.01738435       0.03122578       0.05185011      -0.02369891
16
Properties=species:S:1:pos:R:3:mp2_forces:R:3:forces:R:3 R1=NH2 R2=CH3 R3=H R4=NO2 lg=F nu=F rxn-id=2687 mp2_energy=-15700.35039790221 energy=-15699.637503481614 free_energy=-15700.35039790221 pbc="F F F"
C        1.01920112      -0.09670839      -0.00960923       0.03433475      -0.06417280      -0.04626763      -0.67109069      -0.03352750      -0.35693280
C        1.44024893       1.32801174      -0.38299083      -0.00596243       0.00256658      -0.00472650      -0.06908027      -0.05361095      -0.01294852
H        1.69752652       1.30434197      -1.43831872      -0.00959561       0.00105109       0.00376976       0.06398948       0.08381886       0.01091395
F       -0.26672972      -0.14443791      -0.73371997      -0.01362459      -0.00655727       0.00389798      -0.05643740      -0.05462769       0.07611095
F        3.08873210      -0.00285737       1.00252595      -0.02200879       0.01086873      -0.00403947       0.60833249      -0.06622851       0.24285132
H        2.23455552       1.74917556       0.22416337       0.03094673       0.00523302      -0.04021763       0.01445861      -0.45893858       0.18931735
N        1.74174005      -1.10628633      -0.75871009      -0.02414470       0.00182402       0.01586671      -0.13217713       0.06891423      -0.05093823
H        1.02664704      -1.78095553      -0.99638939       0.08021374       0.01981411       0.02408408       0.17956158      -0.31725854       0.00230991
H        2.46715586      -1.49609149      -0.16949813      -0.08114893       0.00252370       0.00219347      -0.01814229       0.55319257       0.19057833
C        0.61617964      -0.39138529       1.43727526      -0.00621279      -0.00116817       0.00640190      -0.07430461       0.01364446      -0.11514130
H        1.12993300      -1.27382164       1.81758758       0.00483795       0.00207869       0.03262810       0.09175034       0.07691376      -0.20012052
H        0.83465819       0.42114635       2.12637680       0.01130890       0.02017901       0.00937517       0.08412470       0.02618613      -0.17930264
H       -0.46366474      -0.55854977       1.41034014      -0.03642338       0.00334043      -0.05094111      -0.09589531      -0.05424127       0.25444957
N        0.25481906       2.22670814      -0.27657519       0.01546101      -0.00030487       0.04345218       0.04945424       0.10015174      -0.01631595
O       -0.23455974       2.39299408       0.84090483       0.03216687      -0.03484471       0.02190734       0.01569920       0.07920035      -0.01025497
O       -0.16246429       2.77451032      -1.29725079      -0.01014872       0.03756842      -0.01738435       0.00975707       0.03641094      -0.02457644
16
Properties=species:S:1:pos:R:3:mp2_forces:R:3:forces:R:3 R1=NH2 R2=CH3 R3=H R4=NO2 lg=F nu=F rxn-id=2687 mp2_energy=-15700.35039790221 energy=-15699.330301219508 free_energy=-15700.35039790221 pbc="F F F"
C        1.10656808      -0.09220847       0.03685515       0.03433475      -0.06417280      -0.04626763      -1.26077885      -0.05553851      -0.67430618
C        1.44942159       1.33519143      -0.38100381      -0.00596243       0.00256658      -0.00472650      -0.01541542      -0.02722820       0.00471100
H        1.69014237       1.29409475      -1.43930092      -0.00959561       0.00105109       0.00376976       0.07081806       0.08041400       0.00943615
F       -0.25954787      -0.13699054      -0.74329039      -0.01362459      -0.00655727       0.00389798       0.37701502      -0.04213917       0.31875122
F        3.01006974       0.00526291       0.96989998      -0.02200879       0.01086873      -0.00403947       0.78558223      -0.00050598       0.33524590
H        2.23224441       1.80898669       0.20067882       0.03094673       0.00523302      -0.04021763       0.04980790      -0.36828649       0.17110689
N        1.75856033      -1.11510971      -0.75218112      -0.02414470       0.00182402       0.01586671      -0.13539159       0.05030832      -0.05752514
H        1.00277792      -1.73956602      -0.99631157       0.08021374       0.01981411       0.02408408       0.15165896      -0.32394736      -0.07209997
H        2.46954164      -1.56775407      -0.19467902      -0.08114893       0.00252370       0.00219347      -0.04752529       0.45965207       0.19351111
C        0.62602425      -0.39311663       1.45243134      -0.00621279      -0.00116817       0.00640190      -0.05636481       0.01509319      -0.11261403
H        1.11781700      -1.28414091       1.84365193       0.00483795       0.00207869       0.03262810       0.07945680       0.07217828      -0.17253077
H        0.82415841       0.41732539       2.15020998       0.01130890       0.02017901       0.00937517       0.07332915       0.01686515      -0.15220156
H       -0.45110381      -0.55100985       1.37744520      -0.03642338       0.00334043      -0.05094111      -0.10724871      -0.05871837       0.26681483
N        0.24831253       2.21371883      -0.27627098       0.01546101      -0.00030487       0.04345218       0.06199925       0.11124969       0.01934015
O       -0.23751715       2.38236677       0.84218873       0.03216687      -0.03484471       0.02190734      -0.00067258       0.04522789      -0.03155101
O       -0.16349090       2.76874387      -1.29421174      -0.01014872       0.03756842      -0.01738435      -0.02627013       0.02537549      -0.04608858
16
Properties=species:S:1:pos:R:3:mp2_forces:R:3:forces:R:3 R1=NH2 R2=CH3 R3=H R4=NO2 lg=F nu=F rxn-id=2687 mp2_energy=-15700.35039790221 energy=-15699.059036034812 free_energy=-15700.35039790221 pbc="F F F"
C        1.20535883      -0.08785545       0.08975572       0.03433475      -0.06417280      -0.04626763      -0.89034570      -0.04025160      -0.47499757
C        1.45067337       1.33742414      -0.38119913      -0.00596243       0.00256658      -0.00472650       0.01809532       0.00708300       0.00827825
H        1.68529817       1.28799463      -1.43963920      -0.00959561       0.00105109       0.00376976       0.03939170       0.04090540       0.00464760
F       -0.28917047      -0.13356332      -0.76822297      -0.01362459      -0.00655727       0.00389798       0.37353996      -0.01070430       0.25691183
F        2.94853127       0.00512998       0.94344809      -0.02200879       0.01086873      -0.00403947       0.47266664       0.01998645       0.20601911
H        2.22793986       1.83793605       0.18807586       0.03094673       0.00523302      -0.04021763       0.03015841      -0.15532494       0.08308301
N        1.76921281      -1.11901120      -0.74766091      -0.02414470       0.00182402       0.01586671      -0.06955332       0.00928992      -0.04069174
H        0.99048685      -1.71401580      -0.99098217       0.08021374       0.01981411       0.02408408       0.06744546      -0.16925987      -0.05352135
H        2.47294063      -1.60396665      -0.21011494      -0.08114893       0.00252370       0.00219347      -0.02870944       0.20287792       0.09090939
C        0.63061795      -0.39428123       1.46135651      -0.00621279      -0.00116817       0.00640190      -0.02504486       0.00233963      -0.04017711
H        1.11179122      -1.28987078       1.85707541       0.00483795       0.00207869       0.03262810       0.03615983       0.03079061      -0.07545997
H        0.81899102       0.41597016       2.16216235       0.01130890       0.02017901       0.00937517       0.03523431       0.00602330      -0.06660747
H       -0.44259506      -0.54616271       1.35695060      -0.03642338       0.00334043      -0.05094111      -0.05932312      -0.03019781       0.14144898
N        0.24319948       2.20454366      -0.27592158       0.01546101      -0.00030487       0.04345218       0.03904237       0.07005157      -0.00273039
O       -0.23740798       2.37869550       0.84312846       0.03216687      -0.03484471       0.02190734      -0.01520263       0.01486780      -0.01419900
O       -0.16188942       2.76682744      -1.29210052      -0.01014872       0.03756842      -0.01738435      -0.02355493       0.00152293      -0.02291357
16
Properties=species:S:1:pos:R:3:mp2_forces:R:3:forces:R:3 R1=NH2 R2=CH3 R3=H R4=NO2 lg=F nu=F rxn-id=2687 mp2_energy=-15700.35039790221 energy=-15699.00375813742 free_energy=-15700.35039790221 pbc="F F F"