14
Properties=species:S:1:pos:R:3:mp2_forces:R:3:forces:R:3 R1=H R2=NO2 R3=NH2 R4=CN lg=Cl nu=Br rxn-id=307 mp2_energy=-94236.12141706908 energy=-94236.12141706908 free_energy=-94236.12141706908 pbc="F F F"
C        0.64325582       0.03965326       0.10650547      -0.02804295       0.00329637      -0.04620561      -0.02804295       0.00329637      -0.04620561
C        1.01994266       1.51846763      -0.04671763       0.00215280       0.04121450      -0.02166278       0.00215280       0.04121450      -0.02166278
H        2.11655833       1.51020921      -0.07320785       0.00200372       0.01664702       0.01948681       0.00200372       0.01664702       0.01948681
Cl      -1.11511557      -0.15919784       0.33897294      -0.02515165      -0.00325231      -0.01872901      -0.02515165      -0.00325231      -0.01872901
Br       3.73331892      -0.27116101      -0.99532290      -0.00683664      -0.00453859      -0.03932732      -0.00683664      -0.00453859      -0.03932732
H        0.95194380      -0.54393689      -0.75501347       0.06538004      -0.02180149      -0.03299918       0.06538004      -0.02180149      -0.03299918
N        1.31478910      -0.60362944       1.29096618      -0.06476446      -0.04280683      -0.00456761      -0.06476446      -0.04280683      -0.00456761
O        1.76854299       0.13019812       2.16475309       0.02696307      -0.01339899       0.06160303       0.02696307      -0.01339899       0.06160303
O        1.30727094      -1.82611964       1.30807850       0.00536470       0.05352494       0.05431500       0.00536470       0.05352494       0.05431500
N        0.53748561       2.46038706       0.94684102       0.00970093      -0.02005342       0.02889096       0.00970093      -0.02005342       0.02889096
H        0.93345009       2.18981719       1.83670583       0.02174316       0.01746234       0.03821706       0.02174316       0.01746234       0.03821706
H       -0.47215177       2.40671827       1.01614439       0.01160374      -0.02384197      -0.01061798       0.01160374      -0.02384197      -0.01061798
C        0.56045220       1.95458321      -1.37043542       0.02234471       0.00134241       0.00481127       0.02234471       0.00134241       0.00481127
N        0.15550626       2.33441634      -2.40403335      -0.04246118      -0.00379396      -0.03321467      -0.04246118      -0.00379396      -0.03321467
14
Properties=species:S:1:pos:R:3:mp2_forces:R:3:forces:R:3 R1=H R2=NO2 R3=NH2 R4=CN lg=Cl nu=Br rxn-id=307 mp2_energy=-94236.12141706908 energy=-94236.1690085061 free_energy=-94236.12141706908 pbc="F F F"
C        0.66253993       0.03957638       0.10312455      -0.02804295       0.00329637      -0.04620561       0.00546209      -0.00117871      -0.00115344
C        1.02397826       1.52270950      -0.03771697       0.00215280       0.04121450      -0.02166278       0.00376902      -0.00083958      -0.00022490
H        2.11933375       1.53193538      -0.03974228       0.00200372       0.01664702       0.01948681       0.00376223       0.00034976      -0.00647537
Cl      -1.10219573      -0.18114424       0.26968401      -0.02515165      -0.00325231      -0.01872901       0.00418675      -0.00428842      -0.02883109
Br       3.66632864      -0.29991280      -1.12925958      -0.00683664      -0.00453859      -0.03932732       0.00647352       0.00780155      -0.01921873
H        1.02477704      -0.54452780      -0.74067581       0.06538004      -0.02180149      -0.03299918       0.02260878      -0.00008537       0.00506176
N        1.29682726      -0.58405093       1.32231915      -0.06476446      -0.04280683      -0.00456761      -0.01118442       0.00172392       0.00910267
O        1.77968276       0.16027764       2.17329386       0.02696307      -0.01339899       0.06160303      -0.00868931       0.00198211       0.00767047
O        1.25543130      -1.80369239       1.37951981       0.00536470       0.05352494       0.05431500      -0.02325627       0.00242314       0.01702473
N        0.51557308       2.44892931       0.95679017       0.00970093      -0.02005342       0.02889096       0.00679439      -0.00155595       0.00208015
H        0.93551767       2.20016799       1.84266629       0.02174316       0.01746234       0.03821706       0.00983697      -0.00154920       0.00060465
H       -0.48852111       2.34316631       1.03714208       0.01160374      -0.02384197      -0.01061798       0.00688797      -0.00102893       0.00483731
C        0.58283777       1.96104846      -1.36927278       0.02234471       0.00134241       0.00481127      -0.00706064      -0.00075291       0.00121266
N        0.18313876       2.34592266      -2.40363570      -0.04246118      -0.00379396      -0.03321467      -0.01959108      -0.00300141       0.00830915
14
Properties=species:S:1:pos:R:3:mp2_forces:R:3:forces:R:3 R1=H R2=NO2 R3=NH2 R4=CN lg=Cl nu=Br rxn-id=307 mp2_energy=-94236.12141706908 energy=-94236.16147867186 free_energy=-94236.12141706908 pbc="F F F"
C        0.66380538       0.04211584       0.10935700      -0.02804295       0.00329637      -0.04620561       0.00503684      -0.00289454      -0.00189529
C        1.01995592       1.52678685      -0.02721734       0.00215280       0.04121450      -0.02166278       0.00361384      -0.00320196      -0.00035829
H        2.11396376       1.54631109       0.00082051       0.00200372       0.01664702       0.01948681       0.00426967      -0.00806363      -0.01502361
Cl      -1.09836529      -0.18700877       0.29625223      -0.02515165      -0.00325231      -0.01872901       0.00278622      -0.00769070      -0.04382599
Br       3.60580836      -0.34357300      -1.18963210      -0.00683664      -0.00453859      -0.03932732       0.02485839       0.01502833      -0.01990501
H        1.01739440      -0.54079454      -0.73875761       0.06538004      -0.02180149      -0.03299918       0.03239742       0.00043294       0.00594838
N        1.31630622      -0.57745158       1.32157044      -0.06476446      -0.04280683      -0.00456761      -0.01776414       0.00109028       0.01242862
O        1.81620182       0.17160351       2.15871245       0.02696307      -0.01339899       0.06160303      -0.02002864       0.00207708       0.01314002
O        1.27376644      -1.79647457       1.38687948       0.00536470       0.05352494       0.05431500      -0.02776979       0.00163210       0.02040206
N        0.48011404       2.44732730       0.95702390       0.00970093      -0.02005342       0.02889096       0.01720962      -0.00071689       0.00432519
H        0.89520356       2.20997590       1.84840487       0.02174316       0.01746234       0.03821706       0.01674361      -0.00585080       0.00302625
H       -0.52172078       2.31493126       1.02689748       0.01160374      -0.02384197      -0.01061798       0.01460723       0.01749779       0.00542853
C        0.61749106       1.96727228      -1.37034822       0.02234471       0.00134241       0.00481127      -0.01706849      -0.00270469       0.00261726
N        0.25532447       2.35938390      -2.41572628      -0.04246118      -0.00379396      -0.03321467      -0.03889179      -0.00663531       0.01369187
14
Properties=species:S:1:pos:R:3:mp2_forces:R:3:forces:R:3 R1=H R2=NO2 R3=NH2 R4=CN lg=Cl nu=Br rxn-id=307 mp2_energy=-94236.12141706908 energy=-94236.14373478902 free_energy=-94236.12141706908 pbc="F F F"
C        0.66034459       0.04727730       0.11311629      -0.02804295       0.00329637      -0.04620561      -0.00231966      -0.00739823      -0.00109158
C        1.01791144       1.53225537      -0.02363903       0.00215280       0.04121450      -0.02166278      -0.00698337      -0.00929518       0.00284314
H        2.11033652       1.56163140       0.02893330       0.00200372       0.01664702       0.01948681      -0.00508613      -0.03479767      -0.02164385
Cl      -1.09922173      -0.17524627       0.35070455      -0.02515165      -0.00325231      -0.01872901      -0.00450770      -0.02777473      -0.06947208
Br       3.56335615      -0.37085840      -1.18780306      -0.00683664      -0.00453859      -0.03932732       0.05612773       0.01744342      -0.03448174
H        0.97990006      -0.53966875      -0.74450044       0.06538004      -0.02180149      -0.03299918       0.05350196       0.00430546       0.00874219
N        1.33979146      -0.57656725       1.30830399      -0.06476446      -0.04280683      -0.00456761      -0.02661985       0.00145140       0.01730389
O        1.84357901       0.17208711       2.14334270       0.02696307      -0.01339899       0.06160303      -0.02805093       0.00616218       0.01431779
O        1.30679099      -1.79596606       1.36648758       0.00536470       0.05352494       0.05431500      -0.02878872       0.00155264       0.02596427
N        0.45197650       2.44700181       0.95213090       0.00970093      -0.02005342       0.02889096       0.02807126       0.00340392       0.00900267
H        0.86622672       2.21881301       1.84653895       0.02174316       0.01746234       0.03821706       0.02660224      -0.00129870       0.00778329
H       -0.54539865       2.28160675       1.01719949       0.01160374      -0.02384197      -0.01061798       0.01884533       0.05927913       0.01406689
C        0.64618605       1.97255650      -1.37587584       0.02234471       0.00134241       0.00481127      -0.03117351      -0.00611025       0.00702450
N        0.31347027       2.36548295      -2.43070260      -0.04246118      -0.00379396      -0.03321467      -0.04961864      -0.00692338       0.01964061
14
Properties=species:S:1:pos:R:3:mp2_forces:R:3:forces:R:3 R1=H R2=NO2 R3=NH2 R4=CN lg=Cl nu=Br rxn-id=307 mp2_energy=-94236.12141706908 energy=-94236.12527837513 free_energy=-94236.12141706908 pbc="F F F"
C        0.66014914       0.05145478       0.11205376      -0.02804295       0.00329637      -0.04620561      -0.02540803      -0.00822936       0.00611733
C        1.02273345       1.53695516      -0.02773500       0.00215280       0.04121450      -0.02166278      -0.02995229      -0.01857712       0.00995375
H        2.11410513       1.57903868       0.03298365       0.00200372       0.01664702       0.01948681      -0.02378450      -0.09311490      -0.02026086
Cl      -1.09890709      -0.15466609       0.39307231      -0.02515165      -0.00325231      -0.01872901      -0.01837763      -0.04765232      -0.09074494
Br       3.54445708      -0.36589376      -1.14501784      -0.00683664      -0.00453859      -0.03932732       0.11014549       0.00551652      -0.06491457
H        0.94178225      -0.54308592      -0.75229122       0.06538004      -0.02180149      -0.03299918       0.08598068       0.01827189       0.01613194
N        1.35239402      -0.58056020       1.29503215      -0.06476446      -0.04280683      -0.00456761      -0.03602971       0.00668661       0.02117712
O        1.84695424       0.16423381       2.13870663       0.02696307      -0.01339899       0.06160303      -0.02084291       0.01289216       0.00738941
O        1.32621098      -1.80044375       1.34237027       0.00536470       0.05352494       0.05431500      -0.02322145       0.00611971       0.02193256
N        0.44414040       2.44569792       0.94653579       0.00970093      -0.02005342       0.02889096       0.03073527       0.01300513       0.01429198
H        0.86246755       2.21899786       1.83974518       0.02174316       0.01746234       0.03821706       0.03047880       0.01427934       0.01328348
H       -0.54815476       2.25292199       1.01321691       0.01160374      -0.02384197      -0.01061798       0.01039098       0.10572451       0.02874933
C        0.65770384       1.97424900      -1.38307451       0.02234471       0.00134241       0.00481127      -0.04382018      -0.01038391       0.01312389
N        0.32921316       2.36150598      -2.44136128      -0.04246118      -0.00379396      -0.03321467      -0.04629452      -0.00453827       0.02376958
14
Properties=species:S:1:pos:R:3:mp2_forces:R:3:forces:R:3 R1=H R2=NO2 R3=NH2 R4=CN lg=Cl nu=Br rxn-id=307 mp2_energy=-94236.12141706908 energy=-94236.03778343988 free_energy=-94236.12141706908 pbc="F F F"
C        0.68008024       0.05825228       0.10710187      -0.02804295       0.00329637      -0.04620561      -0.19194128       0.00257510       0.05890794
C        1.04564916       1.55144197      -0.03594319       0.00215280       0.04121450      -0.02166278      -0.11741276      -0.05241849       0.03117206
H        2.13180815       1.64958485       0.04449520       0.00200372       0.01664702       0.01948681      -0.08606903      -0.30757638      -0.00540539
Cl      -1.08547592      -0.11659746       0.46300943      -0.02515165      -0.00325231      -0.01872901      -0.00056113      -0.07004121      -0.12892206
Br       3.46387797      -0.36196663      -1.08495436      -0.00683664      -0.00453859      -0.03932732       0.32535477      -0.04386383      -0.17477663
H        0.87409298      -0.55659210      -0.76508511       0.06538004      -0.02180149      -0.03299918       0.20870053       0.08973315       0.05502839
N        1.37848886      -0.58861428       1.27709106      -0.06476446      -0.04280683      -0.00456761      -0.08542754       0.02817637       0.03182970
O        1.85232327       0.15022786       2.13761815       0.02696307      -0.01339899       0.06160303       0.01174921       0.02994008      -0.02410423
O        1.34744898      -1.80849892       1.31786842       0.00536470       0.05352494       0.05431500       0.00121984       0.02433723      -0.01117432
N        0.42476339       2.43690543       0.93529160       0.00970093      -0.02005342       0.02889096       0.02610948       0.05551271       0.02438769
H        0.84680876       2.21202696       1.82820064       0.02174316       0.01746234       0.03821706       0.03415513       0.05123515       0.01689112
H       -0.55188069       2.17535538       0.99511073       0.01160374      -0.02384197      -0.01061798      -0.01825786       0.21520395       0.07204896
C        0.68788262       1.98081044      -1.39677719       0.02234471       0.00134241       0.00481127      -0.07301557      -0.02121481       0.02435911
N        0.35938163       2.35806968      -2.45879045      -0.04246118      -0.00379396      -0.03321467      -0.03460379      -0.00159903       0.02975765
14
Properties=species:S:1:pos:R:3:mp2_forces:R:3:forces:R:3 R1=H R2=NO2 R3=NH2 R4=CN lg=Cl nu=Br rxn-id=307 mp2_energy=-94236.12141706908 energy=-94235.85418583661 free_energy=-94236.12141706908 pbc="F F F"
C        0.73297147       0.05783823       0.09105551      -0.02804295       0.00329637      -0.04620561      -0.87448585       0.02431360       0.25385947
C        1.07766734       1.56612065      -0.04396987       0.00215280       0.04121450      -0.02166278      -0.22947478      -0.09856259       0.04780831
H        2.15509978       1.73395797       0.04575545       0.00200372       0.01664702       0.01948681      -0.14113303      -0.51240878       0.00852063
Cl      -1.08464454      -0.09784731       0.49661886      -0.02515165      -0.00325231      -0.01872901       0.38696956      -0.01197228      -0.17543658
Br       3.37568021      -0.35030891      -1.03747564      -0.00683664      -0.00453859      -0.03932732       0.61344134      -0.11519697      -0.30860259
H        0.81758400      -0.58042824      -0.78016224       0.06538004      -0.02180149      -0.03299918       0.41623963       0.19153065       0.10248312
N        1.40128762      -0.59684518       1.26843692      -0.06476446      -0.04280683      -0.00456761      -0.17941977       0.03941794       0.04126978
O        1.84631575       0.14126345       2.14564270       0.02696307      -0.01339899       0.06160303       0.05429296       0.02878866      -0.07818502
O        1.34797777      -1.81578096       1.31965312       0.00536470       0.05352494       0.05431500       0.04785188       0.02902736      -0.05602393
N        0.41806919       2.42245676       0.92893563       0.00970093      -0.02005342       0.02889096       0.00606348       0.12415091       0.02577655
H        0.83896615       2.19973197       1.82364580       0.02174316       0.01746234       0.03821706       0.02888776       0.05961860       0.00144677
H       -0.54646221       2.11751190       0.97659371       0.01160374      -0.02384197      -0.01061798      -0.03063080       0.25748443       0.09692188
C        0.70685932       1.98630251      -1.40465984       0.02234471       0.00134241       0.00481127      -0.06707217      -0.01805606       0.02180600
N        0.36787754       2.35643262      -2.46583331      -0.04246118      -0.00379396      -0.03321467      -0.03153022       0.00186451       0.01835560
14
Properties=species:S:1:pos:R:3:mp2_forces:R:3:forces:R:3 R1=H R2=NO2 R3=NH2 R4=CN lg=Cl nu=Br rxn-id=307 mp2_energy=-94236.12141706908 energy=-94235.58467637277 free_energy=-94236.12141706908 pbc="F F F"
C        0.81713346       0.05566464       0.06659305      -0.02804295       0.00329637      -0.04620561      -1.56939913       0.04893729       0.46241834
C        1.09981966       1.57580711      -0.04859439       0.00215280       0.04121450      -0.02166278      -0.22241063      -0.09655074       0.04167667
H        2.16880152       1.78342522       0.04458777       0.00200372       0.01664702       0.01948681      -0.11265961      -0.46737380       0.00506213
Cl      -1.12170951      -0.09601799       0.51370792      -0.02515165      -0.00325231      -0.01872901       0.79663257       0.04642284      -0.20989415
Br       3.31699553      -0.33914255      -1.00738949      -0.00683664      -0.00453859      -0.03932732       0.68334752      -0.13396946      -0.32500047
H        0.77794777      -0.59874512      -0.79011382       0.06538004      -0.02180149      -0.03299918       0.50555961       0.15736081       0.02526801
N        1.41825671      -0.60087874       1.26434533      -0.06476446      -0.04280683      -0.00456761      -0.14939138       0.02525723       0.02843809
O        1.83996856       0.13816994       2.15364089       0.02696307      -0.01339899       0.06160303       0.05773769       0.01470942      -0.08705470
O        1.34364912      -1.81876327       1.32437376       0.00536470       0.05352494       0.05431500       0.06562829       0.01565612      -0.05268321
N        0.41760110       2.41068167       0.92655234       0.00970093      -0.02005342       0.02889096      -0.00415054       0.14375176       0.02401803
H        0.83656724       2.19431897       1.82352446       0.02174316       0.01746234       0.03821706       0.02491663       0.04307016      -0.00591467
H       -0.54321527       2.09231316       0.96763332       0.01160374      -0.02384197      -0.01061798      -0.01565062       0.20825564       0.07748292
C        0.71303941       1.98806735      -1.40687412       0.02234471       0.00134241       0.00481127      -0.02745597      -0.00570171       0.00211577
N        0.37039409       2.35550509      -2.46775022      -0.04246118      -0.00379396      -0.03321467      -0.03270440       0.00017446       0.01406724
14
Properties=species:S:1:pos:R:3:mp2_forces:R:3:forces:R:3 R1=H R2=NO2 R3=NH2 R4=CN lg=Cl nu=Br rxn-id=307 mp2_energy=-94236.12141706908 energy=-94235.34436465948 free_energy=-94236.12141706908 pbc="F F F"
C        0.90479388       0.05295013       0.04073952      -0.02804295       0.00329637      -0.04620561      -1.28532520       0.06113527       0.40049086
C        1.11226110       1.58126236      -0.05086268       0.00215280       0.04121450      -0.02166278      -0.13196471      -0.05184024       0.02426462
H        2.17511513       1.80965182       0.04418428       0.00200372       0.01664702       0.01948681      -0.06002752      -0.29030964       0.00038113
Cl      -1.16613970      -0.09854818       0.52539518      -0.02515165      -0.00325231      -0.01872901       0.61856364       0.04623679      -0.14176819
Br       3.27888631      -0.33159118      -0.98913504      -0.00683664      -0.00453859      -0.03932732       0.47866347      -0.09083076      -0.21747213
H        0.74992636      -0.60744144      -0.79161895       0.06538004      -0.02180149      -0.03299918       0.37727569       0.05167853      -0.06274659
N        1.42648597      -0.60239318       1.26272120      -0.06476446      -0.04280683      -0.00456761      -0.05471251       0.00913710       0.00666139
O        1.83614491       0.13715546       2.15876198       0.02696307      -0.01339899       0.06160303       0.03190376       0.00621114      -0.04850613
O        1.34015235      -1.81978311       1.32701278       0.00536470       0.05352494       0.05431500       0.04448705       0.00350745      -0.02865332
N        0.41792383       2.40277978       0.92525425       0.00970093      -0.02005342       0.02889096      -0.00305768       0.10267973       0.01740235
H        0.83545272       2.19221657       1.82385186       0.02174316       0.01746234       0.03821706       0.01772956       0.02851789      -0.00402641
H       -0.54222137       2.08073114       0.96354718       0.01160374      -0.02384197      -0.01061798      -0.00423771       0.12832312       0.04670833
C        0.71437540       1.98834653      -1.40718275       0.02234471       0.00134241       0.00481127      -0.00365496      -0.00187337      -0.00424305
N        0.37209249       2.35506878      -2.46843201      -0.04246118      -0.00379396      -0.03321467      -0.02564287      -0.00257302       0.01150714
14
Properties=species:S:1:pos:R:3:mp2_forces:R:3:forces:R:3 R1=H R2=NO2 R3=NH2 R4=CN lg=Cl nu=Br rxn-id=307 mp2_energy=-94236.12141706908 energy=-94235.21489614314 free_energy=-94236.12141706908 pbc="F F F"
C        0.99169601       0.04885053       0.01364705      -0.02804295       0.00329637      -0.04620561      -0.43172821       0.02450647       0.13782701
C        1.12120613       1.58484001      -0.05243595       0.00215280       0.04121450      -0.02166278      -0.04074274      -0.01307427       0.00905578
H        2.17920017       1.82941521       0.04401828       0.00200372       0.01664702       0.01948681      -0.01763698      -0.08963108      -0.00120563
Cl      -1.20785951      -0.10156557       0.53494725      -0.02515165      -0.00325231      -0.01872901       0.20089648       0.01777925      -0.04244340
Br       3.24664981      -0.32535190      -0.97431729      -0.00683664      -0.00453859      -0.03932732       0.16084342      -0.02681287      -0.06879181
H        0.72463182      -0.61084059      -0.78749526       0.06538004      -0.02180149      -0.03299918       0.12485264       0.00298289      -0.03862390
N        1.43005121      -0.60312201       1.26223793      -0.06476446      -0.04280683      -0.00456761      -0.01406065       0.00059899       0.00011010
O        1.83326729       0.13649304       2.16234846       0.02696307      -0.01339899       0.06160303       0.00286482      -0.00097622      -0.01010991
O        1.33733752      -1.82019890       1.32857906       0.00536470       0.05352494       0.05431500       0.01689154      -0.00242139      -0.01058273
N        0.41823007       2.39598773       0.92412756       0.00970093      -0.02005342       0.02889096       0.00030355       0.03690725       0.00637299
H        0.83458044       2.19064635       1.82411491       0.02174316       0.01746234       0.03821706       0.00865878       0.01401985      -0.00116847
H       -0.54179712       2.07210096       0.96068576       0.01160374      -0.02384197      -0.01061798       0.00078694       0.04278446       0.01733882
C        0.71438030       1.98842022      -1.40714366       0.02234471       0.00134241       0.00481127      -0.00132790      -0.00096400      -0.00314446
N        0.37367524       2.35473040      -2.46907731      -0.04246118      -0.00379396      -0.03321467      -0.01060170      -0.00569934       0.00536561
14
Properties=species:S:1:pos:R:3:mp2_forces:R:3:forces:R:3 R1=H R2=NO2 R3=NH2 R4=CN lg=Cl nu=Br rxn-id=307 mp2_energy=-94236.12141706908 energy=-94235.22345514719 free_energy=-94236.12141706908 pbc="F F F"
C        1.08312699       0.04307095      -0.01621258      -0.02804295       0.00329637      -0.04620561       0.52524218      -0.03249871      -0.17139154
C        1.12919486       1.58710288      -0.05425321       0.00215280       0.04121450      -0.02166278       0.04614142       0.01407445      -0.00956978
H        2.18254573       1.84745020       0.04382401       0.00200372       0.01664702       0.01948681       0.01955643       0.10541335      -0.00325139
Cl      -1.24839858      -0.10514575       0.54275664      -0.02515165      -0.00325231      -0.01872901      -0.23077657      -0.01855010       0.04451271
Br       3.21339443      -0.31986829      -0.96001358      -0.00683664      -0.00453859      -0.03932732      -0.18851306       0.03306370       0.08401995
H        0.69957055      -0.60814694      -0.77641678       0.06538004      -0.02180149      -0.03299918      -0.14116608       0.01673799       0.06185575
N        1.43143739      -0.60337898       1.26246023      -0.06476446      -0.04280683      -0.00456761       0.00583062      -0.00336710       0.00070405
O        1.83055415       0.13606740       2.16481404       0.02696307      -0.01339899       0.06160303      -0.02630423      -0.00612208       0.01872469
O        1.33433577      -1.81985654       1.32909240       0.00536470       0.05352494       0.05431500      -0.01446376      -0.00062888      -0.00272703
N        0.41839451       2.38846057       0.92291989       0.00970093      -0.02005342       0.02889096       0.00234894      -0.04094755      -0.00621100
H        0.83386091       2.18859966       1.82425937       0.02174316       0.01746234       0.03821706       0.00062698      -0.00657560       0.00059956
H       -0.54172393       2.06335701       0.95821869       0.01160374      -0.02384197      -0.01061798       0.00240464      -0.04961689      -0.00972355
C        0.71348936       1.98830495      -1.40716545       0.02234471       0.00134241       0.00481127      -0.00886112      -0.00154786      -0.00381590
N        0.37546724       2.35438833      -2.47004688      -0.04246118      -0.00379396      -0.03321467       0.00793362      -0.00943472      -0.00372654
14
Properties=species:S:1:pos:R:3:mp2_forces:R:3:forces:R:3 R1=H R2=NO2 R3=NH2 R4=CN lg=Cl nu=Br rxn-id=307 mp2_energy=-94236.12141706908 energy=-94235.35497808237 free_energy=-94236.12141706908 pbc="F F F"
C        1.17202335       0.03610794      -0.04660731      -0.02804295       0.00329637      -0.04620561       1.09100292      -0.08479052      -0.37271155
C        1.13863926       1.58855356      -0.05688351       0.00215280       0.04121450      -0.02166278       0.11610036       0.01872224      -0.03132577
H        2.18673994       1.86718788       0.04314689       0.00200372       0.01664702       0.01948681       0.05170001       0.24380458      -0.01049650
Cl      -1.29037237      -0.10941523       0.54973177      -0.02515165      -0.00325231      -0.01872901      -0.51276750      -0.05069307       0.08527403
Br       3.17680689      -0.31515301      -0.94531467      -0.00683664      -0.00453859      -0.03932732      -0.44578771       0.05976566       0.18262779
H        0.67718757      -0.59978879      -0.75944622       0.06538004      -0.02180149      -0.03299918      -0.27218204       0.10381211       0.20651603
N        1.43501577      -0.60324383       1.26182870      -0.06476446      -0.04280683      -0.00456761       0.04178316      -0.00012015      -0.00828644
O        1.82749485       0.13574946       2.16683835       0.02696307      -0.01339899       0.06160303      -0.04842302      -0.00791315       0.02917728
O        1.33067496      -1.81858475       1.32884501       0.00536470       0.05352494       0.05431500      -0.04227289       0.01261987      -0.00884839
N        0.41854463       2.37902735       0.92139719       0.00970093      -0.02005342       0.02889096       0.00336800      -0.11328314      -0.01804009
H        0.83329013       2.18565261       1.82429109       0.02174316       0.01746234       0.03821706      -0.00207240      -0.03089839       0.00000090
H       -0.54152928       2.05221588       0.95532360       0.01160374      -0.02384197      -0.01061798       0.00431227      -0.13536987      -0.03096801
C        0.71328505       1.98810537      -1.40764071       0.02234471       0.00134241       0.00481127      -0.00676790      -0.00317177      -0.01055815
N        0.37744865       2.35399104      -2.47127337      -0.04246118      -0.00379396      -0.03321467       0.02200675      -0.01248442      -0.01236113
14
Properties=species:S:1:pos:R:3:mp2_forces:R:3:forces:R:3 R1=H R2=NO2 R3=NH2 R4=CN lg=Cl nu=Br rxn-id=307 mp2_energy=-94236.12141706908 energy=-94235.54836271115 free_energy=-94236.12141706908 pbc="F F F"
C        1.25933304       0.03013358      -0.07574451      -0.02804295       0.00329637      -0.04620561       0.92648803      -0.06378633      -0.30987242
C        1.15365758       1.59014304      -0.06094276       0.00215280       0.04121450      -0.02166278       0.15888927       0.01702147      -0.04184386
H        2.19419753       1.89569445       0.04078299       0.00200372       0.01664702       0.01948681       0.07875294       0.30294421      -0.02483450
Cl      -1.34591740      -0.11566620       0.55628124      -0.02515165      -0.00325231      -0.01872901      -0.58892986      -0.06586923       0.07137204
Br       3.13884714      -0.31343121      -0.93338721      -0.00683664      -0.00453859      -0.03932732      -0.40012603       0.02136877       0.12694163
H        0.65488498      -0.58179166      -0.73093195       0.06538004      -0.02180149      -0.03299918      -0.23458368       0.19055144       0.29960683
N        1.44488354      -0.60167136       1.25925682      -0.06476446      -0.04280683      -0.00456761       0.10306721       0.01421994      -0.02896334