14
Properties=species:S:1:pos:R:3:mp2_forces:R:3:forces:R:3 R1=CN R2=CN R3=CH3 R4=H lg=Br nu=Cl rxn-id=1440 mp2_energy=-90749.3534514172 energy=-90749.3534514172 free_energy=-90749.3534514172 pbc="F F F"
C        0.49625972      -0.04656720      -0.02310198       0.00537193      -0.04870978      -0.00602749       0.00537193      -0.04870978      -0.00602749
C        0.69617596       1.47930893      -0.03146902       0.00163421      -0.05640429      -0.00711177       0.00163421      -0.05640429      -0.00711177
H        1.74639957       1.63667872      -0.27607436       0.00398731       0.00008285       0.02116715       0.00398731       0.00008285       0.02116715
Br      -1.49493301      -0.39001473      -0.25156323       0.04686373       0.05758499       0.01361104       0.04686373       0.05758499       0.01361104
Cl       3.51131902       0.04237340       0.51092043      -0.02850071       0.05391589      -0.00101006      -0.02850071       0.05391589      -0.00101006
H        0.06979047       1.88175419      -0.83280678       0.01491139      -0.01962774      -0.01012225       0.01491139      -0.01962774      -0.01012225
C        1.10297880      -0.70847818      -1.17625352      -0.02403857      -0.03172377      -0.02569316      -0.02403857      -0.03172377      -0.02569316
N        1.41549827      -1.23736250      -2.17943552      -0.00905184       0.04582716       0.01486222      -0.00905184       0.04582716       0.01486222
C        0.81041214      -0.70118014       1.24716172      -0.02540872      -0.04950755       0.05256990      -0.02540872      -0.04950755       0.05256990
N        0.77341690      -1.23893273       2.29445489       0.03174026       0.04251460      -0.04982844       0.03174026       0.04251460      -0.04982844
C        0.37348837       2.10870530       1.31493727      -0.00595932      -0.00967681      -0.00209789      -0.00595932      -0.00967681      -0.00209789
H       -0.58484612       1.76060687       1.70710529      -0.03208694       0.02257049      -0.00035996      -0.03208694       0.02257049      -0.00035996
H        1.15854667       1.85656344       2.02916991      -0.00443256      -0.01859248       0.00883623      -0.00443256      -0.01859248       0.00883623
H        0.32731168       3.19645748       1.22056984       0.02496983       0.01174642      -0.00879552       0.02496983       0.01174642      -0.00879552
14
Properties=species:S:1:pos:R:3:mp2_forces:R:3:forces:R:3 R1=CN R2=CN R3=CH3 R4=H lg=Br nu=Cl rxn-id=1440 mp2_energy=-90749.3534514172 energy=-90749.35183594248 free_energy=-90749.3534514172 pbc="F F F"
C        0.49232075      -0.05891339      -0.02424239       0.00537193      -0.04870978      -0.00602749       0.00136898       0.00331937      -0.00087408
C        0.68275916       1.46825824      -0.03450519       0.00163421      -0.05640429      -0.00711177      -0.00016587      -0.00349705       0.00504658
H        1.72368510       1.63940876      -0.30394238       0.00398731       0.00008285       0.02116715       0.00542669      -0.01938830       0.01476835
Br      -1.49151698      -0.39819699      -0.26984926       0.04686373       0.05758499       0.01361104      -0.01235113       0.00574241       0.01086717
Cl       3.47161697       0.09384113       0.54688215      -0.02850071       0.05391589      -0.00101006       0.01950697       0.02282424       0.00499621
H        0.03494755       1.86461005      -0.82027338       0.01491139      -0.01962774      -0.01012225       0.01578604       0.00141030      -0.00828247
C        1.11232888      -0.71169722      -1.17626235      -0.02403857      -0.03172377      -0.02569316      -0.01651337      -0.00328896      -0.00472770
N        1.43746955      -1.22175021      -2.18482282      -0.00905184       0.04582716       0.01486222      -0.00772910       0.00443047      -0.00109746
C        0.79655540      -0.71396842       1.24855269      -0.02540872      -0.04950755       0.05256990      -0.00099491      -0.00870526       0.00641469
N        0.75126378      -1.24902741       2.29636129       0.03174026       0.04251460      -0.04982844       0.02019640       0.00387206      -0.01180891
C        0.39454773       2.10542580       1.31631851      -0.00595932      -0.00967681      -0.00209789      -0.00437574      -0.00220884      -0.00554541
H       -0.56426549       1.78374622       1.73079736      -0.03208694       0.02257049      -0.00035996      -0.01352637       0.01207979      -0.01293392
H        1.19010037       1.84472619       2.01567767      -0.00443256      -0.01859248       0.00883623      -0.01793297      -0.01255137       0.00513282
H        0.37000565       3.19345010       1.21292305       0.02496983       0.01174642      -0.00879552       0.01130439      -0.00403885      -0.00195587
14
Properties=species:S:1:pos:R:3:mp2_forces:R:3:forces:R:3 R1=CN R2=CN R3=CH3 R4=H lg=Br nu=Cl rxn-id=1440 mp2_energy=-90749.3534514172 energy=-90749.34601681161 free_energy=-90749.3534514172 pbc="F F F"
C        0.49381961      -0.05953875      -0.02664912       0.00537193      -0.04870978      -0.00602749      -0.00250436       0.00505415      -0.00400155
C        0.67173331       1.47061303      -0.03973053       0.00163421      -0.05640429      -0.00711177      -0.00261785      -0.00583207       0.00825880
H        1.70199600       1.65639082      -0.33769979       0.00398731       0.00008285       0.02116715       0.00815621      -0.03069849       0.02223799
Br      -1.48689639      -0.41230720      -0.29061831       0.04686373       0.05758499       0.01361104      -0.01799646       0.00751063       0.01324174
Cl       3.44284739       0.09994109       0.57042883      -0.02850071       0.05391589      -0.00101006       0.02954486       0.02874097       0.00765075
H       -0.00192707       1.86183623      -0.80587478       0.01491139      -0.01962774      -0.01012225       0.02325207       0.00695501      -0.01409035
C        1.12774833      -0.71121391      -1.17181105      -0.02403857      -0.03172377      -0.02569316      -0.02540813      -0.00224858      -0.00410974
N        1.46009037      -1.22204925      -2.17772175      -0.00905184       0.04582716       0.01486222      -0.00609148       0.00505895      -0.00082878
C        0.78514488      -0.71324429       1.25007118      -0.02540872      -0.04950755       0.05256990      -0.00365715      -0.00936482       0.00871159
N        0.72031085      -1.25209551       2.29516593       0.03174026       0.04251460      -0.04982844       0.02864216       0.01110190      -0.01713579
C        0.41320258       2.10463048       1.31868999      -0.00595932      -0.00967681      -0.00209789      -0.00585107      -0.00446594      -0.00992083
H       -0.53355378       1.77697249       1.75551268      -0.03208694       0.02257049      -0.00035996      -0.01436456       0.01089768      -0.01218535
H        1.22750361       1.84734218       1.99740110      -0.00443256      -0.01859248       0.00883623      -0.02054509      -0.01560425       0.00295389
H        0.37979877       3.19263543       1.21645056       0.02496983       0.01174642      -0.00879552       0.00944084      -0.00710516      -0.00078239
14
Properties=species:S:1:pos:R:3:mp2_forces:R:3:forces:R:3 R1=CN R2=CN R3=CH3 R4=H lg=Br nu=Cl rxn-id=1440 mp2_energy=-90749.3534514172 energy=-90749.33453842532 free_energy=-90749.3534514172 pbc="F F F"
C        0.50655479      -0.05891498      -0.02683730       0.00537193      -0.04870978      -0.00602749      -0.03346412       0.00598762      -0.01264621
C        0.66519991       1.47551810      -0.04388765       0.00163421      -0.05640429      -0.00711177      -0.01750287      -0.01024491       0.00961114
H        1.67850270       1.68894456      -0.37802913       0.00398731       0.00008285       0.02116715       0.01066223      -0.07122503       0.03926660
Br      -1.47456292      -0.42354452      -0.31340916       0.04686373       0.05758499       0.01361104      -0.02430668      -0.00043220       0.01496027
Cl       3.40186541       0.10094400       0.58665347      -0.02850071       0.05391589      -0.00101006       0.06566738       0.02937434       0.01666337
H       -0.04271194       1.85418437      -0.78437693       0.01491139      -0.01962774      -0.01012225       0.03188135       0.03127791      -0.02828675
C        1.15082633      -0.71265070      -1.16507620      -0.02403857      -0.03172377      -0.02569316      -0.04177518       0.00603939      -0.00254868
N        1.47646771      -1.22913451      -2.17059633      -0.00905184       0.04582716       0.01486222       0.00829911       0.00982281       0.00549616
C        0.77621837      -0.71388938       1.25437971      -0.02540872      -0.04950755       0.05256990      -0.00754223      -0.00106982       0.00266113
N        0.68045290      -1.26002429       2.29373779       0.03174026       0.04251460      -0.04982844       0.04804191       0.02422124      -0.02419639
C        0.43355691       2.10490179       1.32151480      -0.00595932      -0.00967681      -0.00209789      -0.01153097      -0.00649893      -0.01392243
H       -0.50114790       1.76663871       1.77538842      -0.03208694       0.02257049      -0.00035996      -0.01608024       0.01498807       0.00047123
H        1.26389993       1.85425162       1.98303157      -0.00443256      -0.01859248       0.00883623      -0.02050821      -0.02308601      -0.00873307
H        0.38669624       3.19268809       1.22112189       0.02496983       0.01174642      -0.00879552       0.00815852      -0.00915447       0.00120361
14
Properties=species:S:1:pos:R:3:mp2_forces:R:3:forces:R:3 R1=CN R2=CN R3=CH3 R4=H lg=Br nu=Cl rxn-id=1440 mp2_energy=-90749.3534514172 energy=-90749.30800361987 free_energy=-90749.3534514172 pbc="F F F"
C        0.54185560      -0.05622769      -0.02076938       0.00537193      -0.04870978      -0.00602749      -0.15988508      -0.00006906      -0.03942128
C        0.67722291       1.48280148      -0.04378217       0.00163421      -0.05640429      -0.00711177      -0.06394775      -0.02033389       0.00501909
H        1.67032136       1.74104781      -0.40594091       0.00398731       0.00008285       0.02116715       0.00664290      -0.17735885       0.06339097
Br      -1.45852317      -0.41769157      -0.32106004       0.04686373       0.05758499       0.01361104       0.02796687      -0.01245886       0.01985137
Cl       3.35567196       0.09085833       0.57664622      -0.02850071       0.05391589      -0.00101006       0.16076138       0.01518441       0.04247509
H       -0.06195782       1.83497978      -0.76480881       0.01491139      -0.01962774      -0.01012225       0.03032910       0.10565266      -0.05314810
C        1.17397024      -0.71914360      -1.15992078      -0.02403857      -0.03172377      -0.02569316      -0.06256479       0.02767254       0.00648528
N        1.46596342      -1.24528357      -2.17147542      -0.00905184       0.04582716       0.01486222       0.03606767       0.02115106       0.02890143
C        0.77942090      -0.71902776       1.26284349      -0.02540872      -0.04950755       0.05256990      -0.00035943       0.02658458      -0.01523187
N        0.64868989      -1.27289098       2.29495956       0.03174026       0.04251460      -0.04982844       0.07671550       0.04348582      -0.04339412
C        0.44364657       2.10695564       1.32335162      -0.00595932      -0.00967681      -0.00209789      -0.02383233      -0.00956397      -0.01742607
H       -0.48868236       1.75294052       1.76890212      -0.03208694       0.02257049      -0.00035996      -0.01955696       0.02868231       0.03514980
H        1.27329447       1.86632311       1.98962632      -0.00443256      -0.01859248       0.00883623      -0.01517085      -0.03602382      -0.03535213
H        0.38092448       3.19427132       1.22504312       0.02496983       0.01174642      -0.00879552       0.00683377      -0.01260493       0.00270054
14
Properties=species:S:1:pos:R:3:mp2_forces:R:3:forces:R:3 R1=CN R2=CN R3=CH3 R4=H lg=Br nu=Cl rxn-id=1440 mp2_energy=-90749.3534514172 energy=-90749.25313414512 free_energy=-90749.3534514172 pbc="F F F"
C        0.59038485      -0.05385870      -0.01162374       0.00537193      -0.04870978      -0.00602749      -0.47659516      -0.03723334      -0.09656105
C        0.69387274       1.48787602      -0.04163595       0.00163421      -0.05640429      -0.00711177      -0.11587246      -0.03611493      -0.00255845
H        1.66779437       1.79064967      -0.42269104       0.00398731       0.00008285       0.02116715      -0.00043020      -0.27584300       0.07240957
Br      -1.46607293      -0.41383004      -0.32607423       0.04686373       0.05758499       0.01361104       0.24443029       0.01921038       0.04515259
Cl       3.31033192       0.08777979       0.56388680      -0.02850071       0.05391589      -0.00101006       0.27023593      -0.00360491       0.07064437
H       -0.06916657       1.80792814      -0.75063092       0.01491139      -0.01962774      -0.01012225       0.01649989       0.19352520      -0.07038168
C        1.18858109      -0.72715840      -1.15946836      -0.02403857      -0.03172377      -0.02569316      -0.05117443       0.05011322       0.02828713
N        1.45608698      -1.25417181      -2.17808857      -0.00905184       0.04582716       0.01486222       0.04410255       0.02560830       0.05404111
C        0.77790691      -0.72877981       1.27065954      -0.02540872      -0.04950755       0.05256990       0.05040863       0.05729173      -0.02005354
N        0.62914217      -1.28245436       2.30088666       0.03174026       0.04251460      -0.04982844       0.08224081       0.05037344      -0.06702380
C        0.45081261       2.10926866       1.32460988      -0.00595932      -0.00967681      -0.00209789      -0.03185254      -0.01480562      -0.02434472
H       -0.48257474       1.74451342       1.75801367      -0.03208694       0.02257049      -0.00035996      -0.02139268       0.03677987       0.05831344
H        1.27581635       1.87595429       1.99937981      -0.00443256      -0.01859248       0.00883623      -0.01181340      -0.04635410      -0.05163697
H        0.37890269       3.19619599       1.22639140       0.02496983       0.01174642      -0.00879552       0.00121277      -0.01894623       0.00371199
14
Properties=species:S:1:pos:R:3:mp2_forces:R:3:forces:R:3 R1=CN R2=CN R3=CH3 R4=H lg=Br nu=Cl rxn-id=1440 mp2_energy=-90749.3534514172 energy=-90749.16707555807 free_energy=-90749.3534514172 pbc="F F F"
C        0.65212119      -0.04841518      -0.00062433       0.00537193      -0.04870978      -0.00602749      -0.75212722      -0.07545806      -0.14378830
C        0.70724593       1.49171830      -0.03975538       0.00163421      -0.05640429      -0.00711177      -0.12341116      -0.03871823       0.00041147
H        1.66659084       1.82562648      -0.43259751       0.00398731       0.00008285       0.02116715       0.00178149      -0.27341954       0.06805946
Br      -1.49669530      -0.41617313      -0.33263753       0.04686373       0.05758499       0.01361104       0.38333974       0.05543466       0.06028072
Cl       3.27578253       0.08928355       0.55563776      -0.02850071       0.05391589      -0.00101006       0.30359820      -0.00938326       0.07751618
H       -0.07243406       1.78474965      -0.74131834       0.01491139      -0.01962774      -0.01012225       0.01188448       0.21709961      -0.06956781
C        1.19417687      -0.73335415      -1.16150061      -0.02403857      -0.03172377      -0.02569316       0.00135724       0.05215225       0.04326603
N        1.45167786      -1.25855122      -2.18402008      -0.00905184       0.04582716       0.01486222       0.03943916       0.01682328       0.05010017
C        0.77021415      -0.73696954       1.27498646      -0.02540872      -0.04950755       0.05256990       0.12104210       0.05938434       0.00010528
N        0.61866671      -1.28758779       2.30647118       0.03174026       0.04251460      -0.04982844       0.06701969       0.04201116      -0.06566384
C        0.45583553       2.11080213       1.32544869      -0.00595932      -0.00967681      -0.00209789      -0.02714705      -0.01500419      -0.02957656
H       -0.47842490       1.74002355       1.75135687      -0.03208694       0.02257049      -0.00035996      -0.01634593       0.03117185       0.05191470
H        1.27795967       1.88140642       2.00508435      -0.00443256      -0.01859248       0.00883623      -0.00903684      -0.04496353      -0.04915010
H        0.37910143       3.19735379       1.22708339       0.02496983       0.01174642      -0.00879552      -0.00139392      -0.01713034       0.00609261
14
Properties=species:S:1:pos:R:3:mp2_forces:R:3:forces:R:3 R1=CN R2=CN R3=CH3 R4=H lg=Br nu=Cl rxn-id=1440 mp2_energy=-90749.3534514172 energy=-90749.08136769307 free_energy=-90749.3534514172 pbc="F F F"
C        0.71532642      -0.04173010       0.01056679       0.00537193      -0.04870978      -0.00602749      -0.75532816      -0.07867249      -0.14769072
C        0.71698882       1.49428608      -0.03830558       0.00163421      -0.05640429      -0.00711177      -0.09576892      -0.03047853       0.00756405
H        1.66605289       1.84860114      -0.43813061       0.00398731       0.00008285       0.02116715       0.00768962      -0.20761745       0.05449814
Br      -1.52800889      -0.42018424      -0.33759536       0.04686373       0.05758499       0.01361104       0.32410346       0.05991885       0.04838811
Cl       3.25037698       0.09053085       0.54908839      -0.02850071       0.05391589      -0.00101006       0.27217689      -0.00491407       0.06739676
H       -0.07347172       1.76745170      -0.73561929       0.01491139      -0.01962774      -0.01012225       0.01044422       0.18685997      -0.05428548
C        1.19338615      -0.73733606      -1.16395566      -0.02403857      -0.03172377      -0.02569316       0.04543627       0.03880996       0.04460695
N        1.44855272      -1.26106335      -2.18793621      -0.00905184       0.04582716       0.01486222       0.03017195       0.00430090       0.03171687
C        0.75975146      -0.74241803       1.27634736      -0.02540872      -0.04950755       0.05256990       0.15263730       0.04250482       0.02135524
N        0.61347061      -1.29022156       2.30987790       0.03174026       0.04251460      -0.04982844       0.04580403       0.02797046      -0.04737112
C        0.45849076       2.11173105       1.32586012      -0.00595932      -0.00967681      -0.00209789      -0.01800272      -0.01214662      -0.02969015
H       -0.47654158       1.73740374       1.74683601      -0.03208694       0.02257049      -0.00035996      -0.01002768       0.02197557       0.03521561
H        1.27835805       1.88484116       2.00917156      -0.00443256      -0.01859248       0.00883623      -0.00722797      -0.03614592      -0.03972568
H        0.37908576       3.19802048       1.22740952       0.02496983       0.01174642      -0.00879552      -0.00210829      -0.01236546       0.00802144
14
Properties=species:S:1:pos:R:3:mp2_forces:R:3:forces:R:3 R1=CN R2=CN R3=CH3 R4=H lg=Br nu=Cl rxn-id=1440 mp2_energy=-90749.3534514172 energy=-90749.01357526406 free_energy=-90749.3534514172 pbc="F F F"
C        0.77975677      -0.03473457       0.02207609       0.00537193      -0.04870978      -0.00602749      -0.54037877      -0.05520046      -0.11367423
C        0.72466399       1.49603208      -0.03711672       0.00163421      -0.05640429      -0.00711177      -0.05656961      -0.02086235       0.01482497
H        1.66502194       1.86660948      -0.44259367       0.00398731       0.00008285       0.02116715       0.00753242      -0.11794430       0.03407829
Br      -1.55491728      -0.42458091      -0.34154777       0.04686373       0.05758499       0.01361104       0.19890900       0.04586232       0.02892123
Cl       3.22724214       0.09138739       0.54323319      -0.02850071       0.05391589      -0.00101006       0.18954343       0.00194039       0.04498283
H       -0.07422586       1.75239150      -0.73116214       0.01491139      -0.01962774      -0.01012225       0.00770857       0.12449658      -0.03177685
C        1.18885877      -0.74019561      -1.16641522      -0.02403857      -0.03172377      -0.02569316       0.04957980       0.02123499       0.03554255
N        1.44613248      -1.26264149      -2.19054339      -0.00905184       0.04582716       0.01486222       0.01855375      -0.00684378       0.01333760
C        0.74644872      -0.74647286       1.27594681      -0.02540872      -0.04950755       0.05256990       0.12050131       0.01968813       0.02976933
N        0.61006376      -1.29178099       2.31190896       0.03174026       0.04251460      -0.04982844       0.02539206       0.01547524      -0.02907077
C        0.46036889       2.11237135       1.32616381      -0.00595932      -0.00967681      -0.00209789      -0.00823151      -0.00892916      -0.02831741
H       -0.47518155       1.73542745       1.74355133      -0.03208694       0.02257049      -0.00035996      -0.00353445       0.01226705       0.01764987
H        1.27843670       1.88762168       2.01249559      -0.00443256      -0.01859248       0.00883623      -0.00672023      -0.02302749      -0.02561909
H        0.37914898       3.19847835       1.22761810       0.02496983       0.01174642      -0.00879552      -0.00228577      -0.00815717       0.00935168
14
Properties=species:S:1:pos:R:3:mp2_forces:R:3:forces:R:3 R1=CN R2=CN R3=CH3 R4=H lg=Br nu=Cl rxn-id=1440 mp2_energy=-90749.3534514172 energy=-90748.97884705447 free_energy=-90749.3534514172 pbc="F F F"
C        0.84654838      -0.02752985       0.03421369       0.00537193      -0.04870978      -0.00602749      -0.11792021      -0.00967032      -0.03879731
C        0.73111333       1.49719830      -0.03604799       0.00163421      -0.05640429      -0.00711177      -0.01391015      -0.01369310       0.02278454
H        1.66359743       1.88183473      -0.44662922       0.00398731       0.00008285       0.02116715      -0.00073935      -0.01791654       0.00752272
Br      -1.57877088      -0.42919413      -0.34487435       0.04686373       0.05758499       0.01361104       0.04357864       0.01675534       0.00721021
Cl       3.20395982       0.09180463       0.53748458      -0.02850071       0.05391589      -0.00101006       0.04214757       0.00548731       0.00835325
H       -0.07482744       1.73821298      -0.72737785       0.01491139      -0.01962774      -0.01012225       0.00464642       0.03367890      -0.00622046
C        1.18194679      -0.74215328      -1.16869174      -0.02403857      -0.03172377      -0.02569316       0.00819198       0.00777506       0.02144835
N        1.44399356      -1.26357388      -2.19213178      -0.00905184       0.04582716       0.01486222       0.00465982      -0.01359884       0.00186267
C        0.73128178      -0.74944525       1.27428244      -0.02540872      -0.04950755       0.05256990       0.02559739       0.00005812       0.01982537
N        0.60758090      -1.29264453       2.31281506       0.03174026       0.04251460      -0.04982844       0.00848361       0.00853968      -0.02094255
C        0.46184317       2.11284274       1.32644571      -0.00595932      -0.00967681      -0.00209789       0.00129875      -0.00611140      -0.02639063
H       -0.47404552       1.73373108       1.74092860      -0.03208694       0.02257049      -0.00035996       0.00355826       0.00133225       0.00065218
H        1.27834987       1.89004054       2.01542068      -0.00443256      -0.01859248       0.00883623      -0.00772273      -0.00740106      -0.00774416
H        0.37924725       3.19878878       1.22777710       0.02496983       0.01174642      -0.00879552      -0.00187000      -0.00523540       0.01043583
14
Properties=species:S:1:pos:R:3:mp2_forces:R:3:forces:R:3 R1=CN R2=CN R3=CH3 R4=H lg=Br nu=Cl rxn-id=1440 mp2_energy=-90749.3534514172 energy=-90748.99371340965 free_energy=-90749.3534514172 pbc="F F F"
C        0.91512915      -0.02013398       0.04698356       0.00537193      -0.04870978      -0.00602749       0.42838842       0.04940345       0.06261040
C        0.73688194       1.49776433      -0.03493818       0.00163421      -0.05640429      -0.00711177       0.03380457      -0.00853473       0.03212199
H        1.66206325       1.89452219      -0.45032239       0.00398731       0.00008285       0.02116715      -0.01200389       0.08681745      -0.02320269
Br      -1.60090979      -0.43430123      -0.34773346       0.04686373       0.05758499       0.01361104      -0.13731505      -0.02431754      -0.01654663
Cl       3.17852935       0.09140827       0.53139878      -0.02850071       0.05391589      -0.00101006      -0.16240741       0.00316140      -0.04051457
H       -0.07492015       1.72423459      -0.72430602       0.01491139      -0.01962774      -0.01012225       0.00438203      -0.07930079       0.02011450
C        1.17412269      -0.74268579      -1.17028847      -0.02403857      -0.03172377      -0.02569316      -0.05091931       0.00224620       0.00839635
N        1.44174760      -1.26364268      -2.19248929      -0.00905184       0.04582716       0.01486222      -0.01361058      -0.01474069      -0.00186974
C        0.71610462      -0.75082697       1.27157634      -0.02540872      -0.04950755       0.05256990      -0.09377349      -0.01191582      -0.00123527
N        0.60570515      -1.29271964       2.31225572       0.03174026       0.04251460      -0.04982844      -0.00801230       0.00694979      -0.02382041
C        0.46300118       2.11314679       1.32671879      -0.00595932      -0.00967681      -0.00209789       0.01105805      -0.00366073      -0.02403244
H       -0.47307217       1.73219186       1.73882255      -0.03208694       0.02257049      -0.00035996       0.01120577      -0.01098084      -0.01607800
H        1.27806385       1.89203289       2.01803404      -0.00443256      -0.01859248       0.00883623      -0.00977843       0.00875003       0.01268168
H        0.37937177       3.19892219       1.22790297       0.02496983       0.01174642      -0.00879552      -0.00101840      -0.00387717       0.01137482
14
Properties=species:S:1:pos:R:3:mp2_forces:R:3:forces:R:3 R1=CN R2=CN R3=CH3 R4=H lg=Br nu=Cl rxn-id=1440 mp2_energy=-90749.3534514172 energy=-90749.06175925059 free_energy=-90749.3534514172 pbc="F F F"
C        0.98191944      -0.01318465       0.05961952       0.00537193      -0.04870978      -0.00602749       0.92303866       0.09919431       0.15888101
C        0.74299202       1.49786671      -0.03367491       0.00163421      -0.05640429      -0.00711177       0.08318100      -0.00974768       0.04327331
H        1.66059903       1.90651711      -0.45399625       0.00398731       0.00008285       0.02116715      -0.02189328       0.17492030      -0.05197580
Br      -1.62290879      -0.43957945      -0.35054312       0.04686373       0.05758499       0.01361104      -0.30448232      -0.06602995      -0.03774514
Cl       3.15089441       0.09055021       0.52488540      -0.02850071       0.05391589      -0.00101006      -0.38986558      -0.00653281      -0.09329154
H       -0.07444302       1.70962005      -0.72124428       0.01491139      -0.01962774      -0.01012225       0.01240748      -0.19526274       0.04412445
C        1.16764304      -0.74217902      -1.17095374      -0.02403857      -0.03172377      -0.02569316      -0.08894425       0.01270037       0.00897085
N        1.43907250      -1.26326272      -2.19206782      -0.00905184       0.04582716       0.01486222      -0.03689400      -0.00926411       0.00575385
C        0.70302413      -0.75097753       1.26842501      -0.02540872      -0.04950755       0.05256990      -0.17809043      -0.00510263      -0.02753156
N        0.60362117      -1.29235048       2.31059544       0.03174026       0.04251460      -0.04982844      -0.02596530       0.01253227      -0.04357444
C        0.46420234       2.11334612       1.32705232      -0.00595932      -0.00967681      -0.00209789       0.02082583      -0.00272751      -0.02163121
H       -0.47205533       1.73065255       1.73681311      -0.03208694       0.02257049      -0.00035996       0.01892308      -0.02278525      -0.03012186
H        1.27774709       1.89395983       2.02072616      -0.00443256      -0.01859248       0.00883623      -0.01230934       0.02275923       0.03339297
H        0.37951040       3.19893411       1.22797810       0.02496983       0.01174642      -0.00879552       0.00006845      -0.00465381       0.01147511
14
Properties=species:S:1:pos:R:3:mp2_forces:R:3:forces:R:3 R1=CN R2=CN R3=CH3 R4=H lg=Br nu=Cl rxn-id=1440 mp2_energy=-90749.3534514172 energy=-90749.17152678492 free_energy=-90749.3534514172 pbc="F F F"
C        1.04630992      -0.00672299       0.07191794       0.00537193      -0.04870978      -0.00602749       1.22257931       0.12562651       0.22142256
C        0.75005641       1.49753915      -0.03218428       0.00163421      -0.05640429      -0.00711177       0.13392521      -0.01544171       0.05459849
H        1.65925764       1.91876286      -0.45783330       0.00398731       0.00008285       0.02116715      -0.02639535       0.24310190      -0.07515890
Br      -1.64533604      -0.44510082      -0.35338301       0.04686373       0.05758499       0.01361104      -0.42634015      -0.09836845      -0.05269551
Cl       3.12052264       0.08917099       0.51783126      -0.02850071       0.05391589      -0.00101006      -0.59039648      -0.02139767      -0.13846048
H       -0.07324948       1.69346929      -0.71789818       0.01491139      -0.01962774      -0.01012225       0.02949700      -0.30120361       0.06611493
C        1.16317991      -0.74063289      -1.17061242      -0.02403857      -0.03172377      -0.02569316      -0.08167696       0.03521990       0.02342322