14
Properties=species:S:1:pos:R:3:mp2_forces:R:3:forces:R:3 R1=H R2=CH3 R3=NH2 R4=H lg=Br nu=Cl rxn-id=678 mp2_energy=-87241.61356891667 energy=-87241.613565049 free_energy=-87241.613565049 pbc="F F F"
C        0.54829089      -0.01243758       0.14764065       0.01893549       0.03803916       0.01828451       0.01889998       0.03804712       0.01829005
C        0.53827012       1.51471351       0.24756846      -0.00033360       0.01431346       0.02023669      -0.00031856       0.01433001       0.02023316
H        0.93747675       1.89965257      -0.70334455      -0.07957819       0.02615562       0.00989712      -0.07958565       0.02615394       0.00990243
Br      -0.98976578      -0.55678240      -0.98463576       0.04693233       0.01867673      -0.06288744       0.04694199       0.01867561      -0.06288129
Cl       3.99711048       0.44097899       0.34259002       0.02420607      -0.00535610      -0.01721656       0.02420736      -0.00535726      -0.01721783
H        1.42631782      -0.34096878      -0.40424572       0.03028381      -0.00227415       0.00558688       0.03029361      -0.00228204       0.00556999
H       -0.49460527       1.86218002       0.35339522      -0.02792656      -0.02671787      -0.02924769      -0.02791858      -0.02672140      -0.02924950
C        0.47262195      -0.73169368       1.47263234      -0.02874531       0.04357870       0.02043543      -0.02874425       0.04357202       0.02044887
H        1.39934379      -0.51819823       2.00671349      -0.00691247      -0.07100567       0.01322587      -0.00691871      -0.07100779       0.01322551
H       -0.36367726      -0.36538724       2.06927831      -0.07492551      -0.03559638       0.03677353      -0.07491588      -0.03560116       0.03676771
H        0.37494911      -1.80947395       1.31822615       0.03474163       0.04476999       0.05002276       0.03474398       0.04477748       0.05002386
N        1.28184300       1.96200943       1.42577826       0.00079271       0.01795983      -0.00272692       0.00079034       0.01797092      -0.00273498
H        1.28055057       2.97712931       1.42044398       0.02503116      -0.04286364       0.01734754       0.02502993      -0.04288307       0.01734788
H        2.25108938       1.66490474       1.30624222       0.03749843      -0.01967969      -0.07973172       0.03749441      -0.01967441      -0.07972583
14
Properties=species:S:1:pos:R:3:mp2_forces:R:3:forces:R:3 R1=H R2=CH3 R3=NH2 R4=H lg=Br nu=Cl rxn-id=678 mp2_energy=-87241.61356891667 energy=-87241.61651377408 free_energy=-87241.613565049 pbc="F F F"
C        0.55924937       0.00407782       0.15503917       0.01893549       0.03803916       0.01828451       0.00335980       0.00236129       0.00328160
C        0.52823761       1.52950445       0.25509363      -0.00033360       0.01431346       0.02023669      -0.01737107      -0.00050201       0.00860122
H        0.90087769       1.92464542      -0.70202869      -0.07957819       0.02615562       0.00989712      -0.05392668       0.01119336      -0.00177246
Br      -0.94390386      -0.55573244      -1.01098308       0.04693233       0.01867673      -0.06288744       0.03798126      -0.01026151      -0.03357328
Cl       3.93283248       0.27649067       0.30661379       0.02420607      -0.00535610      -0.01721656       0.03553149       0.01772800       0.00338870
H        1.45376109      -0.31171798      -0.37845239       0.03028381      -0.00227415       0.00558688       0.02212034       0.01745784       0.02383900
H       -0.50658258       1.86468612       0.37861599      -0.02792656      -0.02671787      -0.02924769      -0.01930449      -0.01549705       0.04192641
C        0.47542436      -0.71980847       1.47816711      -0.02874531       0.04357870       0.02043543      -0.01369776       0.00181917       0.00218725
H        1.35382252      -0.43178103       2.05531570      -0.00691247      -0.07100567       0.01322587      -0.00983596      -0.01151496       0.00384172
H       -0.42498851      -0.44811201       2.03426319      -0.07492551      -0.03559638       0.03677353      -0.01003194       0.01700567       0.00138063
H        0.49605714      -1.80028164       1.32190760       0.03474163       0.04476999       0.05002276      -0.03262316       0.00122858       0.00348938
N        1.29850441       1.97235943       1.41633566       0.00079271       0.01795983      -0.00272692       0.01483742      -0.00476292      -0.01089312
H        1.26784330       2.98521051       1.45216307       0.02503116      -0.04286364       0.01734754       0.03535325      -0.00383708      -0.01587980
H        2.26868054       1.69708587       1.25623231       0.03749843      -0.01967969      -0.07973172       0.00760751      -0.02241839      -0.02981724
14
Properties=species:S:1:pos:R:3:mp2_forces:R:3:forces:R:3 R1=H R2=CH3 R3=NH2 R4=H lg=Br nu=Cl rxn-id=678 mp2_energy=-87241.61356891667 energy=-87241.59530838058 free_energy=-87241.613565049 pbc="F F F"
C        0.55332036       0.00343644       0.15015829       0.01893549       0.03803916       0.01828451      -0.00001676       0.00301807       0.00403634
C        0.54405129       1.53206408       0.24441563      -0.00033360       0.01431346       0.02023669      -0.02349981      -0.00012065       0.00820344
H        0.95530141       1.91427661      -0.70192785      -0.07957819       0.02615562       0.00989712      -0.06314486       0.01211879      -0.00529482
Br      -0.99097345      -0.54331061      -0.97145439       0.04693233       0.01867673      -0.06288744       0.04486075      -0.01600634      -0.04496104
Cl       3.89402854       0.24493019       0.32640162       0.02420607      -0.00535610      -0.01721656       0.05435370       0.02772944       0.00306300
H        1.42561943      -0.32792210      -0.40890737       0.03028381      -0.00227415       0.00558688       0.02696765       0.02218245       0.03241322
H       -0.48831825       1.88381922       0.33125064      -0.02792656      -0.02671787      -0.02924769      -0.02571001      -0.01252634       0.04465617
C        0.49582351      -0.72206144       1.47380793      -0.02874531       0.04357870       0.02043543      -0.01801033       0.00384874       0.00384671
H        1.37624082      -0.42359659       2.04178235      -0.00691247      -0.07100567       0.01322587      -0.00770655      -0.01404794      -0.00141894
H       -0.40321326      -0.46681952       2.03925834      -0.07492551      -0.03559638       0.03677353      -0.00851243       0.02542513       0.01014648
H        0.53319849      -1.80148843       1.31318438       0.03474163       0.04476999       0.05002276      -0.04464331       0.00264387       0.00573968
N        1.27898348       1.98046554       1.42653618       0.00079271       0.01795983      -0.00272692       0.01551723      -0.01061417      -0.01219297
H        1.22965853       2.99259475       1.46458621       0.02503116      -0.04286364       0.01734754       0.04276314      -0.00913911      -0.01112162
H        2.25609465       1.72023858       1.28919110       0.03749843      -0.01967969      -0.07973172       0.00678158      -0.03451192      -0.03711565
14
Properties=species:S:1:pos:R:3:mp2_forces:R:3:forces:R:3 R1=H R2=CH3 R3=NH2 R4=H lg=Br nu=Cl rxn-id=678 mp2_energy=-87241.61356891667 energy=-87241.56791575739 free_energy=-87241.613565049 pbc="F F F"
C        0.54754790       0.00353929       0.14564298       0.01893549       0.03803916       0.01828451      -0.00529419       0.00298573       0.00423353
C        0.56062748       1.53526489       0.23339379      -0.00033360       0.01431346       0.02023669      -0.02972838      -0.00033472       0.00782766
H        1.01047667       1.90334870      -0.70069361      -0.07957819       0.02615562       0.00989712      -0.06855337       0.01112371      -0.00784895
Br      -1.03949619      -0.52893195      -0.92717875       0.04693233       0.01867673      -0.06288744       0.04832038      -0.02290938      -0.05579115
Cl       3.85369121       0.20499657       0.35343754       0.02420607      -0.00535610      -0.01721656       0.07742762       0.04228858      -0.00053090
H        1.39462308      -0.34318456      -0.44109771       0.03028381      -0.00227415       0.00558688       0.03203800       0.02525415       0.04113934
H       -0.46784911       1.90335830       0.28217478      -0.02792656      -0.02671787      -0.02924769      -0.03162341      -0.00775091       0.04512358
C        0.51851584      -0.72570282       1.46845082      -0.02874531       0.04357870       0.02043543      -0.02330335       0.00705854       0.00523378
H        1.40278139      -0.42097214       2.02619518      -0.00691247      -0.07100567       0.01322587      -0.00622834      -0.01125934      -0.00935020
H       -0.37691402      -0.48630276       2.04574316      -0.07492551      -0.03559638       0.03677353      -0.00855139       0.03462987       0.01857935
H        0.56943090      -1.80351076       1.30044580       0.03474163       0.04476999       0.05002276      -0.05512017       0.00455716       0.00900809
N        1.25841658       1.99152233       1.43507643       0.00079271       0.01795983      -0.00272692       0.01451126      -0.01827043      -0.01121886
H        1.18516011       3.00218305       1.47560300       0.02503116      -0.04286364       0.01734754       0.05159135      -0.01527246      -0.00588229
H        2.24280372       1.75101856       1.32108965       0.03749843      -0.01967969      -0.07973172       0.00451398      -0.05210050      -0.04052299
14
Properties=species:S:1:pos:R:3:mp2_forces:R:3:forces:R:3 R1=H R2=CH3 R3=NH2 R4=H lg=Br nu=Cl rxn-id=678 mp2_energy=-87241.61356891667 energy=-87241.52293929596 free_energy=-87241.613565049 pbc="F F F"
C        0.54819712       0.00094850       0.14185738       0.01893549       0.03803916       0.01828451      -0.02650031       0.00557751       0.00750996
C        0.58983653       1.53594723       0.22441607      -0.00033360       0.01431346       0.02023669      -0.04765141       0.00206168       0.00490679
H        1.08101400       1.88950909      -0.69386969      -0.07957819       0.02615562       0.00989712      -0.07192589      -0.00074295      -0.01089863
Br      -1.09144658      -0.50988660      -0.87126829       0.04693233       0.01867673      -0.06288744       0.05307306      -0.02419711      -0.07079851
Cl       3.78029035       0.17110185       0.35909053       0.02420607      -0.00535610      -0.01721656       0.14875050       0.05358377      -0.00998362
H        1.35916577      -0.36587435      -0.48113095       0.03028381      -0.00227415       0.00558688       0.04134746       0.03352397       0.07211614
H       -0.43353575       1.91824491       0.23298298      -0.02792656      -0.02671787      -0.02924769      -0.04256086       0.01719847       0.03081036
C        0.54102076      -0.73226448       1.46360714      -0.02874531       0.04357870       0.02043543      -0.03591580       0.01210410       0.00849294
H        1.40892829      -0.40583742       2.03322328      -0.00691247      -0.07100567       0.01322587       0.00269418      -0.00324994      -0.03694801
H       -0.36791301      -0.52377167       2.03077352      -0.07492551      -0.03559638       0.03677353      -0.00617495       0.03663146       0.04980988
H        0.62650484      -1.80717139       1.29036641       0.03474163       0.04476999       0.05002276      -0.06840622       0.00874780       0.00854475
N        1.24414212       2.00606847       1.44583772       0.00079271       0.01795983      -0.00272692       0.00393279      -0.03208658      -0.01121769
H        1.13646542       3.01389429       1.48560553       0.02503116      -0.04286364       0.01734754       0.05653226      -0.02680180       0.00496993
H        2.23714570       1.79571828       1.35679145       0.03749843      -0.01967969      -0.07973172      -0.00719482      -0.08235038      -0.04731430
14
Properties=species:S:1:pos:R:3:mp2_forces:R:3:forces:R:3 R1=H R2=CH3 R3=NH2 R4=H lg=Br nu=Cl rxn-id=678 mp2_energy=-87241.61356891667 energy=-87241.44784270204 free_energy=-87241.613565049 pbc="F F F"
C        0.57102409      -0.00633079       0.13639352       0.01893549       0.03803916       0.01828451      -0.11382380       0.00761536       0.00698408
C        0.62874520       1.53097962       0.22311220      -0.00033360       0.01431346       0.02023669      -0.09039132       0.00626539      -0.00744323
H        1.14072215       1.88756907      -0.68182221      -0.07957819       0.02615562       0.00989712      -0.06736349      -0.04266321      -0.01488296
Br      -1.12939864      -0.49487082      -0.81939626       0.04693233       0.01867673      -0.06288744       0.09116494       0.00183608      -0.05811577
Cl       3.67385154       0.15645376       0.34522628       0.02420607      -0.00535610      -0.01721656       0.29706171       0.05829379      -0.01735331
H        1.33034398      -0.39508394      -0.53490310       0.03028381      -0.00227415       0.00558688       0.07878173       0.06334945       0.15951430
H       -0.39766936       1.89976962       0.20883954      -0.02792656      -0.02671787      -0.02924769      -0.06072150       0.11360150      -0.00761714
C        0.56413178      -0.74070716       1.45890859      -0.02874531       0.04357870       0.02043543      -0.07111670       0.01271794       0.00559662
H        1.40337470      -0.40739309       2.06559519      -0.00691247      -0.07100567       0.01322587       0.01840831       0.03244381      -0.12398373
H       -0.36707926      -0.54046032       1.99000676      -0.07492551      -0.03559638       0.03677353      -0.01293124      -0.00392426       0.12930355
H        0.66397295      -1.81468779       1.28791843       0.03474163       0.04476999       0.05002276      -0.07074118       0.01190570       0.00494513
N        1.23892823       2.02839680       1.45914118       0.00079271       0.01795983      -0.00272692      -0.01740736      -0.06838441      -0.01997199
H        1.09939347       3.03377058       1.47873935       0.02503116      -0.04286364       0.01734754       0.04661227      -0.06139490       0.02317905
H        2.23947471       1.84922118       1.40052361       0.03749843      -0.01967969      -0.07973172      -0.02753237      -0.13166223      -0.08015460
14
Properties=species:S:1:pos:R:3:mp2_forces:R:3:forces:R:3 R1=H R2=CH3 R3=NH2 R4=H lg=Br nu=Cl rxn-id=678 mp2_energy=-87241.61356891667 energy=-87241.28238520467 free_energy=-87241.613565049 pbc="F F F"
C        0.61859687      -0.00925986       0.13420300       0.01893549       0.03803916       0.01828451      -0.44467214      -0.04959005      -0.09576815
C        0.66961156       1.52836432       0.22516623      -0.00033360       0.01431346       0.02023669      -0.16682111      -0.00827596      -0.03575915
H        1.17645853       1.90349482      -0.67453089      -0.07957819       0.02615562       0.00989712      -0.05415606      -0.10024640      -0.00823305
Br      -1.17179669      -0.49600896      -0.79142032       0.04693233       0.01867673      -0.06288744       0.34583677       0.11773936       0.13267809
Cl       3.54891881       0.13274296       0.34877401       0.02420607      -0.00535610      -0.01721656       0.53509512       0.05852494      -0.02114044
H        1.29298006      -0.42466034      -0.60507544       0.03028381      -0.00227415       0.00558688       0.19597335       0.10642811       0.27935825
H       -0.36888939       1.85283072       0.20420860      -0.02792656      -0.02671787      -0.02924769      -0.09457040       0.29174402      -0.02750671
C        0.59547665      -0.74577565       1.45666215      -0.02874531       0.04357870       0.02043543      -0.14745537      -0.00295204      -0.03550832
H        1.39692864      -0.42214319       2.11888497      -0.00691247      -0.07100567       0.01322587       0.02675781       0.09535058      -0.29059120
H       -0.35972215      -0.53811235       1.93704458      -0.07492551      -0.03559638       0.03677353      -0.05104267      -0.08213707       0.22826361
H        0.69409747      -1.81891585       1.28438511       0.03474163       0.04476999       0.05002276      -0.07286928      -0.00729738       0.01994589
N        1.24296093       2.05763486       1.46907289       0.00079271       0.01795983      -0.00272692      -0.04091789      -0.12792838      -0.03497901
H        1.07567047       3.06000425       1.47338239       0.02503116      -0.04286364       0.01734754       0.01787790      -0.11550996       0.00051757
H        2.24852379       1.90643099       1.43752580       0.03749843      -0.01967969      -0.07973172      -0.04903601      -0.17584977      -0.11127738
14
Properties=species:S:1:pos:R:3:mp2_forces:R:3:forces:R:3 R1=H R2=CH3 R3=NH2 R4=H lg=Br nu=Cl rxn-id=678 mp2_energy=-87241.61356891667 energy=-87241.05548941281 free_energy=-87241.613565049 pbc="F F F"
C        0.68537094      -0.00141266       0.14968839       0.01893549       0.03803916       0.01828451      -0.90915423      -0.15762625      -0.29759613
C        0.69616574       1.52910475       0.22979138      -0.00033360       0.01431346       0.02023669      -0.21175285      -0.01691870      -0.04613543
H        1.18577875       1.91839973      -0.67231514      -0.07957819       0.02615562       0.00989712      -0.02426441      -0.10329455      -0.00459603
Br      -1.22491245      -0.51390584      -0.81019745       0.04693233       0.01867673      -0.06288744       0.66643866       0.22393620       0.36015712
Cl       3.46826371       0.12407835       0.35097939       0.02420607      -0.00535610      -0.01721656       0.65531704       0.05348144      -0.01216725
H        1.26410928      -0.44104811      -0.64851838       0.03028381      -0.00227415       0.00558688       0.29352221       0.09981111       0.28389130
H       -0.35436880       1.80859077       0.20761520      -0.02792656      -0.02671787      -0.02924769      -0.10080615       0.36165144      -0.01915070
C        0.61835276      -0.74592604       1.46084217      -0.02874531       0.04357870       0.02043543      -0.18929830      -0.00776985      -0.05397013
H        1.39401310      -0.43715121       2.16151951      -0.00691247      -0.07100567       0.01322587       0.02758273       0.11244895      -0.34049773
H       -0.35143402      -0.52382701       1.90292234      -0.07492551      -0.03559638       0.03677353      -0.06581240      -0.11450004       0.25516462
H        0.70371397      -1.81782898       1.28191093       0.03474163       0.04476999       0.05002276      -0.06011692      -0.02992111       0.03122950
N        1.24838928       2.07686165       1.47528228       0.00079271       0.01795983      -0.00272692      -0.04573054      -0.14094348      -0.03951965
H        1.07186999       3.07751510       1.47222004       0.02503116      -0.04286364       0.01734754       0.00335551      -0.11862010      -0.01609121
H        2.25450330       1.93317620       1.45654241       0.03749843      -0.01967969      -0.07973172      -0.03928034      -0.16173504      -0.10071827
14
Properties=species:S:1:pos:R:3:mp2_forces:R:3:forces:R:3 R1=H R2=CH3 R3=NH2 R4=H lg=Br nu=Cl rxn-id=678 mp2_energy=-87241.61356891667 energy=-87240.84900165127 free_energy=-87241.613565049 pbc="F F F"
C        0.75470831       0.01040117       0.17164873       0.01893549       0.03803916       0.01828451      -0.97087729      -0.15889054      -0.30470050
C        0.71209042       1.53056116       0.23340336      -0.00033360       0.01431346       0.02023669      -0.16298119      -0.00803143      -0.04069290
H        1.18899621       1.92604783      -0.67199910      -0.07957819       0.02615562       0.00989712      -0.00298235      -0.07583296       0.00001583
Br      -1.27646361      -0.53083549      -0.83678247       0.04693233       0.01867673      -0.06288744       0.61396691       0.20031263       0.34859215
Cl       3.41860449       0.11932428       0.35173094       0.02420607      -0.00535610      -0.01721656       0.58297777       0.04383340      -0.00259137
H        1.24089936      -0.44856318      -0.66996895       0.03028381      -0.00227415       0.00558688       0.29224609       0.05808908       0.18653679
H       -0.34605539       1.78158955       0.20784618      -0.02792656      -0.02671787      -0.02924769      -0.07728800       0.29343470      -0.01022132
C        0.63282594      -0.74497440       1.46523409      -0.02874531       0.04357870       0.02043543      -0.15115189      -0.01337006      -0.04084319
H        1.39212100      -0.44533862       2.18704131      -0.00691247      -0.07100567       0.01322587       0.02961736       0.08937469      -0.25938091
H       -0.34588639      -0.51546596       1.88365589      -0.07492551      -0.03559638       0.03677353      -0.05431523      -0.09137257       0.20666737
H        0.70890517      -1.81563580       1.27936597       0.03474163       0.04476999       0.05002276      -0.03888242      -0.02641530       0.02676568
N        1.25132529       2.08743095       1.47840374       0.00079271       0.01795983      -0.00272692      -0.03355338      -0.10643112      -0.02792045
H        1.07076800       3.08639371       1.47385087       0.02503116      -0.04286364       0.01734754      -0.00190886      -0.08490057      -0.01420287
H        2.25697675       1.94569151       1.46485250       0.03749843      -0.01967969      -0.07973172      -0.02486752      -0.11979994      -0.06802432
14
Properties=species:S:1:pos:R:3:mp2_forces:R:3:forces:R:3 R1=H R2=CH3 R3=NH2 R4=H lg=Br nu=Cl rxn-id=678 mp2_energy=-87241.61356891667 energy=-87240.71139304296 free_energy=-87241.613565049 pbc="F F F"
C        0.82285455       0.02142787       0.19248141       0.01893549       0.03803916       0.01828451      -0.61568760      -0.08816803      -0.17526604
C        0.72360410       1.53123291       0.23620824      -0.00033360       0.01431346       0.02023669      -0.08359873       0.00122800      -0.02203937
H        1.19030732       1.93118083      -0.67196176      -0.07957819       0.02615562       0.00989712       0.00871055      -0.04233858       0.00110898
Br      -1.32027220      -0.54484804      -0.86056258       0.04693233       0.01867673      -0.06288744       0.33456951       0.10825696       0.19892920
Cl       3.37794277       0.11592404       0.35179116       0.02420607      -0.00535610      -0.01721656       0.35983575       0.02524935       0.00059073
H        1.21975566      -0.45257185      -0.68296892       0.03028381      -0.00227415       0.00558688       0.18109833       0.02043396       0.08027262
H       -0.34023701       1.76135895       0.20755674      -0.02792656      -0.02671787      -0.02924769      -0.03865824       0.16351018      -0.00857508
C        0.64354872      -0.74391034       1.46821894      -0.02874531       0.04357870       0.02043543      -0.08237528      -0.00975179      -0.01741351
H        1.39027491      -0.45138324       2.20490869      -0.00691247      -0.07100567       0.01322587       0.02096127       0.05027188      -0.13788128
H       -0.34167234      -0.50916126       1.86937553      -0.07492551      -0.03559638       0.03677353      -0.02847689      -0.04903327       0.11760209
H        0.71195897      -1.81374722       1.27739305       0.03474163       0.04476999       0.05002276      -0.01689501      -0.01364473       0.01293505
N        1.25318625       2.09474243       1.48048150       0.00079271       0.01795983      -0.00272692      -0.01922428      -0.05684297      -0.01422959
H        1.07027189       3.09219807       1.47513443       0.02503116      -0.04286364       0.01734754      -0.00596132      -0.04447007      -0.00570093
H        2.25829198       1.95418355       1.47022663       0.03749843      -0.01967969      -0.07973172      -0.01429807      -0.06470091      -0.03033287
14
Properties=species:S:1:pos:R:3:mp2_forces:R:3:forces:R:3 R1=H R2=CH3 R3=NH2 R4=H lg=Br nu=Cl rxn-id=678 mp2_energy=-87241.61356891667 energy=-87240.66238961708 free_energy=-87241.613565049 pbc="F F F"
C        0.89234412       0.03121203       0.21150630       0.01893549       0.03803916       0.01828451       0.00703649      -0.00057870      -0.00449261
C        0.73328252       1.53126260       0.23850712      -0.00033360       0.01431346       0.02023669       0.00340934       0.00150997      -0.00182500
H        1.19101343       1.93567709      -0.67199733      -0.07957819       0.02615562       0.00989712       0.01463151      -0.00183992       0.00083364
Br      -1.35923597      -0.55705037      -0.88198769       0.04693233       0.01867673      -0.06288744      -0.01472787      -0.00136656       0.00655599
Cl       3.33764930       0.11272153       0.35154074       0.02420607      -0.00535610      -0.01721656      -0.00169658      -0.00269549      -0.00166619
H        1.19847158      -0.45477589      -0.69191775       0.03028381      -0.00227415       0.00558688      -0.00856765       0.00081380       0.00033148
H       -0.33532671       1.74339705       0.20695236      -0.02792656      -0.02671787      -0.02924769       0.00500605       0.00200951      -0.01371884
C        0.65304729      -0.74265022       1.47028934      -0.02874531       0.04357870       0.02043543       0.00268961       0.00150800       0.00074658
H        1.38830244      -0.45678374       2.21998061      -0.00691247      -0.07100567       0.01322587       0.00336686       0.00136453      -0.00263427
H       -0.33785387      -0.50366605       1.85648832      -0.07492551      -0.03559638       0.03677353       0.00556252       0.00091902       0.00226464
H        0.71428271      -1.81211998       1.27580716       0.03474163       0.04476999       0.05002276       0.00336227       0.00103222      -0.00115677
N        1.25462213       2.10088742       1.48229463       0.00079271       0.01795983      -0.00272692      -0.00603942      -0.00195685       0.00206141
H        1.07001489       3.09695981       1.47621195       0.02503116      -0.04286364       0.01734754      -0.00781397      -0.00176169       0.00376246
H        2.25920171       1.96155542       1.47460730       0.03749843      -0.01967969      -0.07973172      -0.00621917       0.00104216       0.00893747
14
Properties=species:S:1:pos:R:3:mp2_forces:R:3:forces:R:3 R1=H R2=CH3 R3=NH2 R4=H lg=Br nu=Cl rxn-id=678 mp2_energy=-87241.61356891667 energy=-87240.71688819643 free_energy=-87241.613565049 pbc="F F F"
C        0.96426083       0.03936202       0.22799910       0.01893549       0.03803916       0.01828451       0.71072081       0.07879259       0.15645996
C        0.74204997       1.53056204       0.24033611      -0.00033360       0.01431346       0.02023669       0.08905589      -0.00526403       0.01597231
H        1.19152131       1.94054720      -0.67198375      -0.07957819       0.02615562       0.00989712       0.01921577       0.04610171       0.00089935
Br      -1.39310070      -0.56733334      -0.90077066       0.04693233       0.01867673      -0.06288744      -0.34589079      -0.10219051      -0.17738099
Cl       3.29210837       0.10918332       0.35122853       0.02420607      -0.00535610      -0.01721656      -0.44767963      -0.03711113      -0.00477214
H        1.17651912      -0.45545217      -0.69758186       0.03028381      -0.00227415       0.00558688      -0.22218922      -0.00549116      -0.05455150
H       -0.33073523       1.72608702       0.20595114      -0.02792656      -0.02671787      -0.02924769       0.04969099      -0.16785724      -0.02325479
C        0.66264992      -0.74115619       1.47149845      -0.02874531       0.04357870       0.02043543       0.09649447       0.01644681       0.01254673
H        1.38631376      -0.46225456       2.23387917      -0.00691247      -0.07100567       0.01322587      -0.01596642      -0.05276552       0.13332686
H       -0.33373867      -0.49845959       1.84345782      -0.07492551      -0.03559638       0.03677353       0.04586419       0.05259682      -0.12503271
H        0.71639376      -1.81085900       1.27477286       0.03474163       0.04476999       0.05002276       0.02342672       0.01333127      -0.01130985
N        1.25573695       2.10649316       1.48408433       0.00079271       0.01795983      -0.00272692       0.00501431       0.05280260       0.01957464
H        1.07001118       3.10133913       1.47698397       0.02503116      -0.04286364       0.01734754      -0.00750547       0.04117299       0.01111946
H        2.25982499       1.96856767       1.47842784       0.03749843      -0.01967969      -0.07973172      -0.00025162       0.06943481       0.04640268
14
Properties=species:S:1:pos:R:3:mp2_forces:R:3:forces:R:3 R1=H R2=CH3 R3=NH2 R4=H lg=Br nu=Cl rxn-id=678 mp2_energy=-87241.61356891667 energy=-87240.86811763214 free_energy=-87241.613565049 pbc="F F F"
C        1.03503392       0.04588222       0.24158212       0.01893549       0.03803916       0.01828451       1.24039690       0.11201134       0.23057527
C        0.75108078       1.52927847       0.24212942      -0.00033360       0.01431346       0.02023669       0.16047885      -0.02064076       0.02940249
H        1.19224277       1.94591803      -0.67177782      -0.07957819       0.02615562       0.00989712       0.02630891       0.09233473       0.00425260
Br      -1.42508080      -0.57695985      -0.91856013       0.04693233       0.01867673      -0.06288744      -0.57195349      -0.16976775      -0.30416710
Cl       3.24333042       0.10518096       0.35099408       0.02420607      -0.00535610      -0.01721656      -0.85244081      -0.07182988      -0.00582932
H        1.15400424      -0.45457546      -0.70029153       0.03028381      -0.00227415       0.00558688      -0.39846060       0.01698499      -0.04528659
H       -0.32563763       1.70784352       0.20476980      -0.02792656      -0.02671787      -0.02924769       0.09333989      -0.31718757      -0.03370586