17
Properties=species:S:1:pos:R:3:mp2_forces:R:3:forces:R:3 R1=H R2=CH3 R3=NO2 R4=CH3 lg=F nu=Cl rxn-id=557 mp2_energy=-25061.734256540924 energy=-25061.734269266955 free_energy=-25061.734269266955 pbc="F F F"
C        0.58460496      -0.03673715       0.10506243       0.02602195       0.04695684      -0.01644525       0.02605639       0.04697628      -0.01644131
C        0.97058262       1.43927287       0.08437587       0.01342326       0.04410720       0.00852492       0.01342496       0.04407800       0.00855639
H        2.02877785       1.49357781       0.34034972       0.01980184      -0.02153161       0.00663091       0.01978661      -0.02152943       0.00662591
F       -0.82011669      -0.12974477       0.00559962       0.01144034       0.02867550      -0.03893423       0.01142728       0.02866988      -0.03894050
Cl       3.71308633      -0.25989829      -0.94997813      -0.00411096       0.06233171      -0.02437178      -0.00411011       0.06233138      -0.02437228
H        1.00684909      -0.45753459      -0.80569304       0.02850362      -0.04159234       0.02333332       0.02849323      -0.04159346       0.02333678
C        1.04649023      -0.82152494       1.31225292      -0.00879957       0.00204587      -0.01269178      -0.00879934       0.00204354      -0.01270349
H        1.14038481      -1.87301662       1.03949821      -0.06109042      -0.04516833       0.04748444      -0.06109106      -0.04517236       0.04748439
H        2.02664394      -0.47242142       1.62896017       0.02395221      -0.06092921      -0.01083684       0.02395503      -0.06092785      -0.01083586
H        0.33268506      -0.71786562       2.13088051       0.00652223       0.07820904       0.01575004       0.00651730       0.07820967       0.01575589
N        0.23397875       2.15506826       1.17804600      -0.08673446      -0.02680602      -0.00920853      -0.08679603      -0.02679198      -0.00933366
O       -0.71019527       2.88788752       0.88080121       0.02264617      -0.04827252      -0.01707936       0.02269491      -0.04827244      -0.01705122
O        0.60856390       1.94592873       2.33261810       0.04195654      -0.00239669       0.03404225       0.04197326      -0.00239330       0.03411129
C        0.71511112       2.07959984      -1.26121192      -0.00970275       0.00163248      -0.00717532      -0.00969941       0.00163655      -0.00717271
H        1.43112889       1.63739999      -1.95670794      -0.02039890      -0.01035060      -0.00081538      -0.02040121      -0.01035121      -0.00081272
H       -0.30597777       1.88872873      -1.59258809       0.00758820       0.02250836      -0.00973083       0.00758825       0.02250788      -0.00972971
H        0.87874665       3.15875471      -1.22742519      -0.01101930      -0.02941966       0.01152342      -0.01102005      -0.02942113       0.01152281
17
Properties=species:S:1:pos:R:3:mp2_forces:R:3:forces:R:3 R1=H R2=CH3 R3=NO2 R4=CH3 lg=F nu=Cl rxn-id=557 mp2_energy=-25061.734256540924 energy=-25061.731278148727 free_energy=-25061.734269266955 pbc="F F F"
C        0.59988194      -0.03241124       0.11118338       0.02602195       0.04695684      -0.01644525      -0.00019882      -0.00796103      -0.00211278
C        0.98668438       1.44270508       0.08549265       0.01342326       0.04410720       0.00852492      -0.00526318      -0.00693742       0.00061956
H        2.04506553       1.50783554       0.33984747       0.01980184      -0.02153161       0.00663091      -0.00521293      -0.01034207       0.00092957
F       -0.80708474      -0.10194143       0.00686959       0.01144034       0.02867550      -0.03893423       0.00314537      -0.02271160      -0.02569684
Cl       3.69392058      -0.21552622      -0.98925158      -0.00411096       0.06233171      -0.02437178       0.01930237       0.05191069      -0.01961168
H        1.01525615      -0.46288505      -0.79694782       0.02850362      -0.04159234       0.02333332       0.02145116      -0.00768912       0.00685219
C        1.04212208      -0.82781609       1.32009865      -0.00879957       0.00204587      -0.01269178      -0.00994644       0.00066813       0.00537013
H        1.13799889      -1.87980887       1.04465423      -0.06109042      -0.04516833       0.04748444      -0.06565923      -0.01155265       0.02564435
H        2.01820723      -0.48884809       1.66218471       0.02395221      -0.06092921      -0.01083684       0.01699765      -0.03194812      -0.03341956
H        0.31314622      -0.72070210       2.12387742       0.00652223       0.07820904       0.01575004       0.01781350       0.05096973       0.02608908
N        0.23745371       2.15240677       1.17584101      -0.08673446      -0.02680602      -0.00920853      -0.00251777      -0.00462382       0.00063465
O       -0.67728010       2.91813919       0.87082374       0.02264617      -0.04827252      -0.01707936      -0.01104175      -0.01390013       0.00081875
O        0.57505017       1.90911838       2.33576993       0.04195654      -0.00239669       0.03404225       0.00906246       0.00929871       0.00055730
C        0.71495122       2.06971319      -1.26299405      -0.00970275       0.00163248      -0.00717532       0.00079073      -0.00091353       0.00253008
H        1.42824161       1.62927689      -1.96173273      -0.02039890      -0.01035060      -0.00081538      -0.00350216      -0.00627096       0.00170569
H       -0.30652901       1.86843138      -1.58575598       0.00758820       0.02250836      -0.00973083      -0.00191030       0.01513624       0.00101104
H        0.86425860       3.14978773      -1.23512018      -0.01101930      -0.02941966       0.01152342       0.01668934      -0.00313303       0.00807849
17
Properties=species:S:1:pos:R:3:mp2_forces:R:3:forces:R:3 R1=H R2=CH3 R3=NO2 R4=CH3 lg=F nu=Cl rxn-id=557 mp2_energy=-25061.734256540924 energy=-25061.716552259924 free_energy=-25061.734269266955 pbc="F F F"
C        0.59768424      -0.02800022       0.11395312       0.02602195       0.04695684      -0.01644525      -0.00201724      -0.00938873      -0.00246521
C        0.98828684       1.44625176       0.08528599       0.01342326       0.04410720       0.00852492      -0.00764990      -0.00845547       0.00040620
H        2.04690386       1.51167884       0.33892654       0.01980184      -0.02153161       0.00663091      -0.00735364      -0.01297628       0.00038733
F       -0.81140204      -0.08884622       0.02546771       0.01144034       0.02867550      -0.03893423       0.00140137      -0.02638864      -0.02929974
Cl       3.67807964      -0.24457483      -0.98089325      -0.00411096       0.06233171      -0.02437178       0.02595965       0.05447760      -0.02485530
H        0.99828105      -0.45861129      -0.80045011       0.02850362      -0.04159234       0.02333332       0.02225958      -0.01018356       0.00711194
C        1.04903795      -0.82937926       1.31718593      -0.00879957       0.00204587      -0.01269178      -0.01125439       0.00126961       0.00628652
H        1.19557876      -1.87057738       1.02423763      -0.06109042      -0.04516833       0.04748444      -0.06595201      -0.01412418       0.02706628
H        2.00127600      -0.45980406       1.69237339       0.02395221      -0.06092921      -0.01083684       0.01846527      -0.02811139      -0.03459929
H        0.29693062      -0.76729279       2.10425419       0.00652223       0.07820904       0.01575004       0.01551904       0.05344024       0.03047191
N        0.24020394       2.15823722       1.17532288      -0.08673446      -0.02680602      -0.00920853      -0.00308458      -0.00490903       0.00098151
O       -0.65951958       2.94121360       0.86969842       0.02264617      -0.04827252      -0.01707936      -0.01155156      -0.01369561       0.00143206
O        0.56449053       1.89969501       2.33556658       0.04195654      -0.00239669       0.03404225       0.01085795       0.01066085       0.00094763
C        0.71456397       2.06874701      -1.26502178      -0.00970275       0.00163248      -0.00717532       0.00058596      -0.00060731       0.00304347
H        1.43092978       1.63043548      -1.96204209      -0.02039890      -0.01035060      -0.00081538      -0.00438460      -0.00771093       0.00257478
H       -0.30510882       1.85833685      -1.58804249       0.00758820       0.02250836      -0.00973083      -0.00283390       0.02007165      -0.00021718
H        0.85512772       3.14996534      -1.24098221      -0.01101930      -0.02941966       0.01152342       0.02103298      -0.00336882       0.01072708
17
Properties=species:S:1:pos:R:3:mp2_forces:R:3:forces:R:3 R1=H R2=CH3 R3=NO2 R4=CH3 lg=F nu=Cl rxn-id=557 mp2_energy=-25061.734256540924 energy=-25061.69904584282 free_energy=-25061.734269266955 pbc="F F F"
C        0.59626725      -0.02239427       0.11638568       0.02602195       0.04695684      -0.01644525      -0.00717445      -0.01116801      -0.00226604
C        0.99192810       1.45085684       0.08382737       0.01342326       0.04410720       0.00852492      -0.01308843      -0.01083877       0.00111312
H        2.05066015       1.51823217       0.33676742       0.01980184      -0.02153161       0.00663091      -0.01202695      -0.02043508       0.00007118
F       -0.81546874      -0.07048193       0.04963236       0.01144034       0.02867550      -0.03893423      -0.00359038      -0.03308924      -0.03515079
Cl       3.65747271      -0.27809234      -0.95741861      -0.00411096       0.06233171      -0.02437178       0.04260633       0.05459683      -0.03526104
H        0.97610239      -0.45413070      -0.80595414       0.02850362      -0.04159234       0.02333332       0.02323889      -0.01266506       0.00847008
C        1.05826122      -0.83138511       1.31229411      -0.00879957       0.00204587      -0.01269178      -0.01366722       0.00211036       0.00726206
H        1.25687988      -1.85830693       1.00094367      -0.06109042      -0.04516833       0.04748444      -0.06324376      -0.01429898       0.02697368
H        1.98349833      -0.43282103       1.72296702       0.02395221      -0.06092921      -0.01083684       0.01738778      -0.02098325      -0.03668347
H        0.28393774      -0.81766220       2.08002606       0.00652223       0.07820904       0.01575004       0.01397006       0.05184256       0.03637085
N        0.24375511       2.16338332       1.17385287      -0.08673446      -0.02680602      -0.00920853      -0.00400788      -0.00307273       0.00220324
O       -0.64291213       2.96102456       0.86845838       0.02264617      -0.04827252      -0.01707936      -0.01097485      -0.01012286       0.00241627
O        0.55515222       1.88961493       2.33393147       0.04195654      -0.00239669       0.03404225       0.01349076       0.01631922       0.00251757
C        0.71381330       2.06837294      -1.26808758      -0.00970275       0.00163248      -0.00717532      -0.00022816      -0.00051831       0.00441205
H        1.43200305       1.63283367      -1.96507736      -0.02039890      -0.01035060      -0.00081538      -0.00457578      -0.00993892       0.00598264
H       -0.30441831       1.84759979      -1.58905963       0.00758820       0.02250836      -0.00973083      -0.00407255       0.02613284      -0.00331096
H        0.84441218       3.15083137      -1.24864865      -0.01101930      -0.02941966       0.01152342       0.02595659      -0.00387061       0.01487957
17
Properties=species:S:1:pos:R:3:mp2_forces:R:3:forces:R:3 R1=H R2=CH3 R3=NO2 R4=CH3 lg=F nu=Cl rxn-id=557 mp2_energy=-25061.734256540924 energy=-25061.679336457866 free_energy=-25061.734269266955 pbc="F F F"
C        0.59874224      -0.01461682       0.11705299       0.02602195       0.04695684      -0.01644525      -0.02021287      -0.01465746      -0.00094954
C        1.00091159       1.45767273       0.07948562       0.01342326       0.04410720       0.00852492      -0.02744153      -0.01583816       0.00480737
H        2.05918244       1.53240638       0.33246350       0.01980184      -0.02153161       0.00663091      -0.02406992      -0.04164649       0.00108937
F       -0.81634706      -0.04222404       0.08142831       0.01144034       0.02867550      -0.03893423      -0.01508554      -0.05222550      -0.04921589
Cl       3.63363140      -0.31415235      -0.90377893      -0.00411096       0.06233171      -0.02437178       0.07591937       0.04940934      -0.05421322
H        0.94744354      -0.45009628      -0.81531773       0.02850362      -0.04159234       0.02333332       0.03089664      -0.01272835       0.01358864
C        1.07046532      -0.83333064       1.30414068      -0.00879957       0.00204587      -0.01269178      -0.01879248       0.00299695       0.00724845
H        1.30372196      -1.84777245       0.97698034      -0.06109042      -0.04516833       0.04748444      -0.05626445      -0.01053623       0.02402220
H        1.97553413      -0.41973363       1.74326484       0.02395221      -0.06092921      -0.01083684       0.01281068      -0.00702456      -0.04627139
H        0.28035352      -0.85514971       2.05552002       0.00652223       0.07820904       0.01575004       0.01548337       0.04243612       0.04570611
N        0.24731679       2.16364274       1.17035252      -0.08673446      -0.02680602      -0.00920853      -0.00551524       0.00552530       0.00590081
O       -0.63594141       2.96539806       0.86692379       0.02264617      -0.04827252      -0.01707936      -0.00647234       0.00492545       0.00446419
O        0.54897828       1.87562228       2.32931736       0.04195654      -0.00239669       0.03404225       0.01929447       0.03557754       0.00763627
C        0.71258294       2.07004498      -1.27302850      -0.00970275       0.00163248      -0.00717532      -0.00314334      -0.00141502       0.00818465
H        1.42886823       1.63869596      -1.97475500      -0.02039890      -0.01035060      -0.00081538      -0.00236997      -0.01389957       0.01684354
H       -0.30551185       1.83713484      -1.58578755       0.00758820       0.02250836      -0.00973083      -0.00627543       0.03460371      -0.01253315
H        0.83141241       3.15393302      -1.25942182      -0.01101930      -0.02941966       0.01152342       0.03123857      -0.00550306       0.02369158
17
Properties=species:S:1:pos:R:3:mp2_forces:R:3:forces:R:3 R1=H R2=CH3 R3=NO2 R4=CH3 lg=F nu=Cl rxn-id=557 mp2_energy=-25061.734256540924 energy=-25061.659705911377 free_energy=-25061.734269266955 pbc="F F F"
C        0.61030503      -0.00693347       0.11588168       0.02602195       0.04695684      -0.01644525      -0.04342174      -0.01881891       0.00311586
C        1.01606087       1.46564789       0.07511285       0.01342326       0.04410720       0.00852492      -0.05164032      -0.02373971       0.01121930
H        2.07237985       1.55738876       0.33073181       0.01980184      -0.02153161       0.00663091      -0.04171318      -0.08732958       0.00011927
F       -0.80775740      -0.01227597       0.10502677       0.01144034       0.02867550      -0.03893423      -0.03483250      -0.08671640      -0.06817192
Cl       3.60904282      -0.32976035      -0.85961156      -0.00411096       0.06233171      -0.02437178       0.12513880       0.03778069      -0.07632610
H        0.92968868      -0.44792217      -0.82385306       0.02850362      -0.04159234       0.02333332       0.05214494      -0.00441641       0.02284624
C        1.07897406      -0.83476276       1.29853415      -0.00879957       0.00204587      -0.01269178      -0.02726373       0.00499955       0.00722379
H        1.30870977      -1.84852018       0.96669478      -0.06109042      -0.04516833       0.04748444      -0.04977515      -0.00183482       0.01577196
H        1.98124698      -0.43086658       1.75177029       0.02395221      -0.06092921      -0.01083684       0.00895107       0.01565164      -0.06837730
H        0.28018260      -0.85657875       2.04041078       0.00652223       0.07820904       0.01575004       0.02258015       0.02199516       0.06608355
N        0.24929431       2.15719836       1.16652180      -0.08673446      -0.02680602      -0.00920853      -0.00737974       0.02134737       0.01212206
O       -0.63953884       2.95306592       0.86547337       0.02264617      -0.04827252      -0.01707936       0.00051860       0.02982398       0.00642117
O        0.54328847       1.85598752       2.32389931       0.04195654      -0.00239669       0.03404225       0.02635660       0.06852659       0.01750582
C        0.71287815       2.07134801      -1.27752030      -0.00970275       0.00163248      -0.00717532      -0.00854533      -0.00217245       0.01328321
H        1.42482635       1.64460374      -1.98666223      -0.02039890      -0.01035060      -0.00081538       0.00284894      -0.01638234       0.03314838
H       -0.30570115       1.82308027      -1.57599281       0.00758820       0.02250836      -0.00973083      -0.01041226       0.04772336      -0.03158493
H        0.81746393       3.15677483      -1.27157717      -0.01101930      -0.02941966       0.01152342       0.03644486      -0.00643771       0.03559966
17
Properties=species:S:1:pos:R:3:mp2_forces:R:3:forces:R:3 R1=H R2=CH3 R3=NO2 R4=CH3 lg=F nu=Cl rxn-id=557 mp2_energy=-25061.734256540924 energy=-25061.610283936192 free_energy=-25061.734269266955 pbc="F F F"
C        0.63268362       0.00041892       0.11450893       0.02602195       0.04695684      -0.01644525      -0.09327730      -0.01655430       0.01902699
C        1.03821798       1.47565515       0.07213899       0.01342326       0.04410720       0.00852492      -0.08644845      -0.03183092       0.01967355
H        2.08932564       1.60032748       0.33472609       0.01980184      -0.02153161       0.00663091      -0.05635961      -0.18082355      -0.01263760
F       -0.78954182       0.02090854       0.12936148       0.01144034       0.02867550      -0.03893423      -0.07347792      -0.11614193      -0.07811065
Cl       3.54129639      -0.33692795      -0.83883778      -0.00411096       0.06233171      -0.02437178       0.25635378       0.00524906      -0.12047350
H        0.91382313      -0.44619729      -0.83382361       0.02850362      -0.04159234       0.02333332       0.08851068       0.01563025       0.04571519
C        1.09019823      -0.83879517       1.29486964      -0.00879957       0.00204587      -0.01269178      -0.05027141       0.01130406       0.01438590
H        1.33465653      -1.84878952       0.96159881      -0.06109042      -0.04516833       0.04748444      -0.04507934       0.02335437      -0.01480982
H        1.97166741      -0.43768961       1.78972101       0.02395221      -0.06092921      -0.01083684       0.00019307       0.05302479      -0.10651051
H        0.26366632      -0.87049919       2.00453657       0.00652223       0.07820904       0.01575004       0.03554692      -0.02656641       0.12631741
N        0.25385133       2.15144989       1.16221186      -0.08673446      -0.02680602      -0.00920853      -0.01171324       0.04477022       0.02135272
O       -0.62959209       2.95332284       0.86326544       0.02264617      -0.04827252      -0.01707936      -0.00367656       0.05380222       0.00975576
O        0.53101736       1.82815324       2.31755190       0.04195654      -0.00239669       0.03404225       0.02595526       0.10714189       0.03089196
C        0.71650269       2.06851666      -1.28183990      -0.00970275       0.00163248      -0.00717532      -0.01684401       0.00141347       0.01735658
H        1.42585805       1.64730862      -1.99706770      -0.02039890      -0.01035060      -0.00081538       0.00726890      -0.01476187       0.05088855
H       -0.30058604       1.79465874      -1.56152136       0.00758820       0.02250836      -0.00973083      -0.01838936       0.07179073      -0.06367384
H        0.79829974       3.15565371      -1.28655991      -0.01101930      -0.02941966       0.01152342       0.04170859      -0.00080208       0.04085132
17
Properties=species:S:1:pos:R:3:mp2_forces:R:3:forces:R:3 R1=H R2=CH3 R3=NO2 R4=CH3 lg=F nu=Cl rxn-id=557 mp2_energy=-25061.734256540924 energy=-25061.492048568132 free_energy=-25061.734269266955 pbc="F F F"
C        0.66593283       0.00547930       0.10786190       0.02602195       0.04695684      -0.01644525      -0.22201038      -0.00067291       0.05880085
C        1.06801873       1.48584814       0.06587364       0.01342326       0.04410720       0.00852492      -0.14669093      -0.03717952       0.03320963
H        2.10776626       1.66456665       0.34118556       0.01980184      -0.02153161       0.00663091      -0.05638702      -0.34562841      -0.03541535
F       -0.76385585       0.06007070       0.15906765       0.01144034       0.02867550      -0.03893423      -0.11173002      -0.16009696      -0.06864062
Cl       3.45071748      -0.33722970      -0.80609219      -0.00411096       0.06233171      -0.02437178       0.49509769      -0.05001288      -0.20728060
H        0.88018321      -0.45171765      -0.85168044       0.02850362      -0.04159234       0.02333332       0.20566035       0.06213164       0.08734141
C        1.10840353      -0.84281791       1.28959038      -0.00879957       0.00204587      -0.01269178      -0.11224554       0.01686888       0.02092169
H        1.35623125      -1.85647522       0.96865594      -0.06109042      -0.04516833       0.04748444      -0.05086909       0.06747745      -0.07309152
H        1.96792737      -0.45311848       1.83157241       0.02395221      -0.06092921      -0.01083684      -0.02670911       0.11168521      -0.18572789
H        0.24792237      -0.86331831       1.95593875       0.00652223       0.07820904       0.01575004       0.04779102      -0.13135713       0.25757164
N        0.25732192       2.13645204       1.15516923      -0.08673446      -0.02680602      -0.00920853      -0.01308942       0.10223334       0.03103953
O       -0.62542659       2.93901801       0.85937994       0.02264617      -0.04827252      -0.01707936      -0.02015652       0.09103781       0.01973886
O        0.51971012       1.79124084       2.30736612       0.04195654      -0.00239669       0.03404225       0.02144690       0.15857007       0.04429807
C        0.72333882       2.06646289      -1.28701214      -0.00970275       0.00163248      -0.00717532      -0.02589067       0.01307889       0.02103225
H        1.42531741       1.65054110      -2.01287666      -0.02039890      -0.01035060      -0.00081538       0.01126384      -0.01321141       0.07472214
H       -0.29332081       1.76794669      -1.54003548       0.00758820       0.02250836      -0.00973083      -0.03069357       0.10435753      -0.11099561
H        0.78515642       3.15452597      -1.29912417      -0.01101930      -0.02941966       0.01152342       0.03521247       0.01071840       0.03247550
17
Properties=species:S:1:pos:R:3:mp2_forces:R:3:forces:R:3 R1=H R2=CH3 R3=NO2 R4=CH3 lg=F nu=Cl rxn-id=557 mp2_energy=-25061.734256540924 energy=-25061.28569342835 free_energy=-25061.734269266955 pbc="F F F"
C        0.70770427       0.00700407       0.09755900       0.02602195       0.04695684      -0.01644525      -0.65821245       0.03279022       0.11930302
C        1.09512305       1.49313738       0.05860557       0.01342326       0.04410720       0.00852492      -0.19503033      -0.03321763       0.04524054
H        2.11984009       1.73016959       0.34653581       0.01980184      -0.02153161       0.00663091      -0.03949276      -0.51357724      -0.06157916
F       -0.74311150       0.09339502       0.17613959       0.01144034       0.02867550      -0.03893423       0.05172309      -0.22868086      -0.00175047
Cl       3.36321957      -0.32991666      -0.76091248      -0.00411096       0.06233171      -0.02437178       0.81379601      -0.11165262      -0.33535847
H        0.83670343      -0.46255246      -0.86949309       0.02850362      -0.04159234       0.02333332       0.41765043       0.11641076       0.10886071
C        1.13007983      -0.84647939       1.28435610      -0.00879957       0.00204587      -0.01269178      -0.22396559       0.02973224       0.00446477
H        1.36699020      -1.86857052       0.98029724      -0.06109042      -0.04516833       0.04748444      -0.06339366       0.10975459      -0.12268536
H        1.97379435      -0.47508375       1.86588916       0.02395221      -0.06092921      -0.01083684      -0.07782231       0.17384052      -0.28542387
H        0.23879807      -0.83809736       1.90588771       0.00652223       0.07820904       0.01575004       0.04521146      -0.26575522       0.44092469
N        0.25954778       2.11766933       1.14894547      -0.08673446      -0.02680602      -0.00920853       0.01889017       0.19174394       0.04455954
O       -0.62098663       2.92219701       0.85650470       0.02264617      -0.04827252      -0.01707936      -0.06455214       0.12740968       0.03343289
O        0.51435299       1.75865604       2.29845886       0.04195654      -0.00239669       0.03404225       0.00697044       0.18914789       0.04288153
C        0.72831154       2.06398976      -1.29130142      -0.00970275       0.00163248      -0.00717532      -0.03543436       0.03434758       0.02112232
H        1.42235511       1.65293089      -2.02744917      -0.02039890      -0.01035060      -0.00081538       0.01623342      -0.01584744       0.08329642
H       -0.28837773       1.74687156      -1.51917540       0.00758820       0.02250836      -0.00973083      -0.03238316       0.13272552      -0.15011470
H        0.77700004       3.15215453      -1.30600720      -0.01101930      -0.02941966       0.01152342       0.01981175       0.03082806       0.01282559
17
Properties=species:S:1:pos:R:3:mp2_forces:R:3:forces:R:3 R1=H R2=CH3 R3=NO2 R4=CH3 lg=F nu=Cl rxn-id=557 mp2_energy=-25061.734256540924 energy=-25061.006189882835 free_energy=-25061.734269266955 pbc="F F F"
C        0.76699613       0.00448501       0.08759148       0.02602195       0.04695684      -0.01644525      -1.71415737       0.11870181       0.23722284
C        1.11285929       1.49631573       0.05434036       0.01342326       0.04410720       0.00852492      -0.20319039      -0.02819878       0.03581914
H        2.12369586       1.77650087       0.35190596       0.01980184      -0.02153161       0.00663091      -0.00370319      -0.57002180      -0.07467449
F       -0.74830587       0.11466800       0.17658941       0.01144034       0.02867550      -0.03893423       0.72756977      -0.29989621       0.07261248
Cl       3.29022020      -0.32011088      -0.73070994      -0.00411096       0.06233171      -0.02437178       1.09031580      -0.15394937      -0.44556581
H        0.79900887      -0.47304684      -0.87938972       0.02850362      -0.04159234       0.02333332       0.62226949       0.11033367       0.04831212
C        1.15000337      -0.84947584       1.28315522      -0.00879957       0.00204587      -0.01269178      -0.30617978       0.04878600      -0.02218537
H        1.37315184      -1.87789722       0.99088907      -0.06109042      -0.04516833       0.04748444      -0.05138509       0.11931411      -0.13890900
H        1.98053783      -0.49009343       1.89280626       0.02395221      -0.06092921      -0.01083684      -0.11207215       0.19181864      -0.33584067
H        0.23492851      -0.81512940       1.86544866       0.00652223       0.07820904       0.01575004       0.03024380      -0.33873106       0.56226922
N        0.25830933       2.10001214       1.14548864      -0.08673446      -0.02680602      -0.00920853       0.07064319       0.29736543       0.04534575
O       -0.61465494       2.91152930       0.85339238       0.02264617      -0.04827252      -0.01707936      -0.11001770       0.12427706       0.04997210
O        0.51307906       1.74127896       2.29462311       0.04195654      -0.00239669       0.03404225      -0.01611055       0.16437172       0.03701031
C        0.73118904       2.06101724      -1.29295553      -0.00970275       0.00163248      -0.00717532      -0.02325394       0.05137074       0.00822604
H        1.42098348       1.65405585      -2.03524667      -0.02039890      -0.01035060      -0.00081538       0.01716688      -0.02039634       0.07973206
H       -0.28543877       1.73436966      -1.50565287       0.00758820       0.02250836      -0.00973083      -0.02350783       0.13845885      -0.15856882
H        0.77478124       3.14899589      -1.30743538      -0.01101930      -0.02941966       0.01152342       0.00536906       0.04639551      -0.00077793
17
Properties=species:S:1:pos:R:3:mp2_forces:R:3:forces:R:3 R1=H R2=CH3 R3=NO2 R4=CH3 lg=F nu=Cl rxn-id=557 mp2_energy=-25061.734256540924 energy=-25060.655992427543 free_energy=-25061.734269266955 pbc="F F F"
C        0.84264735      -0.00057551       0.07764319       0.02602195       0.04695684      -0.01644525      -2.55062021       0.20560803       0.37274590
C        1.12179317       1.49753002       0.05272062       0.01342326       0.04410720       0.00852492      -0.14832809      -0.00685748       0.01092712
H        2.12388442       1.80156153       0.35507304       0.01980184      -0.02153161       0.00663091       0.02387832      -0.49434117      -0.06800072
F       -0.78065637       0.12801926       0.17349156       0.01144034       0.02867550      -0.03893423       1.26369374      -0.30728454       0.08339303
Cl       3.24235431      -0.31325061      -0.71094430      -0.00411096       0.06233171      -0.02437178       1.16084503      -0.15890334      -0.46770095
H        0.77131004      -0.47777110      -0.88167063       0.02850362      -0.04159234       0.02333332       0.67900597       0.02996312      -0.08359217
C        1.16359561      -0.85156009       1.28401626      -0.00879957       0.00204587      -0.01269178      -0.28148098       0.03655243      -0.02484883