14
Properties=species:S:1:pos:R:3:mp2_forces:R:3:forces:R:3 R1=CN R2=H R3=CH3 R4=CN lg=F nu=Cl rxn-id=1306 mp2_energy=-23450.52527727177 energy=-23450.525273182848 free_energy=-23450.525273182848 pbc="F F F"
C        0.62081543      -0.04573323      -0.07045855      -0.01705600       0.00945181       0.01981284      -0.01702263       0.00940869       0.01971458
C        0.94684473       1.44468376      -0.05982661      -0.00561436       0.01524079       0.00453874      -0.00561072       0.01522176       0.00460504
H        2.03945723       1.49896583      -0.13153785      -0.00903567       0.00731382      -0.01650097      -0.00902319       0.00730825      -0.01649382
F       -0.76377523      -0.22220938       0.02143125       0.01528365      -0.00689501      -0.00027472       0.01525902      -0.00688353      -0.00025736
Cl       3.60342384      -0.06133410       1.11590433      -0.01508750       0.04939759       0.08412765      -0.01508861       0.04939811       0.08412583
H        1.10314732      -0.50567661       0.79130021       0.01576688      -0.01894730       0.00866079       0.01577584      -0.01894226       0.00867829
C        1.07895425      -0.71350311      -1.29432558      -0.01913766      -0.01995648      -0.07109754      -0.01909345      -0.02000716      -0.07121066
N        1.38888160      -1.25749047      -2.28699733      -0.02423452       0.01417354      -0.00072069      -0.02429387       0.01426002      -0.00055224
C        0.50612119       2.07369051       1.26524952       0.01371199      -0.00611124       0.00198392       0.01372118      -0.00610794       0.00197625
H       -0.54882155       1.86946322       1.45843752       0.01589201      -0.00006018      -0.01315568       0.01589035      -0.00006649      -0.01316276
H        1.12221902       1.65092638       2.06034203       0.01044434      -0.01972897      -0.00692721       0.01044226      -0.01973371      -0.00693805
H        0.65250802       3.15571241       1.24534797       0.03489150      -0.02141502      -0.00579699       0.03489047      -0.02141526      -0.00579873
C        0.32410728       2.12228693      -1.19843645       0.00028449      -0.00319272       0.00394297       0.00028704      -0.00318430       0.00393984
N       -0.17891597       2.70039360      -2.08834455      -0.01610913       0.00072936      -0.00859312      -0.01613368       0.00074381      -0.00862620
14
Properties=species:S:1:pos:R:3:mp2_forces:R:3:forces:R:3 R1=CN R2=H R3=CH3 R4=CN lg=F nu=Cl rxn-id=1306 mp2_energy=-23450.52527727177 energy=-23450.52621297427 free_energy=-23450.525273182848 pbc="F F F"
C        0.61621117      -0.03776315      -0.08395448      -0.01705600       0.00945181       0.01981284      -0.00241544      -0.00895575      -0.00561520
C        0.95011096       1.45256812      -0.06928297      -0.00561436       0.01524079       0.00453874      -0.00306425      -0.00927602      -0.00589127
H        2.04003198       1.51552155      -0.16172707      -0.00903567       0.00731382      -0.01650097      -0.00298375      -0.01299554      -0.00867368
F       -0.77184595      -0.19929523      -0.03209068       0.01528365      -0.00689501      -0.00027472      -0.00001768      -0.01566454       0.02026550
Cl       3.55432952      -0.07193880       1.18463450      -0.01508750       0.04939759       0.08412765      -0.00480443       0.05254716       0.07391536
H        1.06569187      -0.50036455       0.79435354       0.01576688      -0.01894730       0.00866079       0.01830402      -0.00999549      -0.01587338
C        1.09724509      -0.71509339      -1.29534923      -0.01913766      -0.01995648      -0.07109754      -0.01911877       0.00018169      -0.01793806
N        1.41720392      -1.26652164      -2.28033503      -0.02423452       0.01417354      -0.00072069      -0.01783347       0.01041276      -0.02335180
C        0.53348521       2.06999366       1.26873331       0.01371199      -0.00611124       0.00198392       0.00735958      -0.00522866      -0.00497265
H       -0.50955929       1.83752671       1.49145173       0.01589201      -0.00006018      -0.01315568       0.00142378       0.01902780      -0.00725273
H        1.18359435       1.65992384       2.04266121       0.01044434      -0.01972897      -0.00692721      -0.00129798      -0.01987335      -0.00562081
H        0.65116255       3.15471900       1.24624216       0.03489150      -0.02141502      -0.00579699       0.03327321      -0.00794632      -0.00512097
C        0.30033731       2.12673346      -1.19578752       0.00028449      -0.00319272       0.00394297      -0.00450909      -0.00238767      -0.00080732
N       -0.23303153       2.68416617      -2.08146353      -0.01610913       0.00072936      -0.00859312      -0.00431572       0.01015395       0.00693702
14
Properties=species:S:1:pos:R:3:mp2_forces:R:3:forces:R:3 R1=CN R2=H R3=CH3 R4=CN lg=F nu=Cl rxn-id=1306 mp2_energy=-23450.52527727177 energy=-23450.514345237032 free_energy=-23450.525273182848 pbc="F F F"
C        0.61528609      -0.03260239      -0.07975492      -0.01705600       0.00945181       0.01981284      -0.00431721      -0.01062405      -0.00585580
C        0.95069932       1.45769428      -0.06467685      -0.00561436       0.01524079       0.00453874      -0.00476163      -0.01126734      -0.00658498
H        2.04059504       1.52171654      -0.15589723      -0.00903567       0.00731382      -0.01650097      -0.00443505      -0.01725887      -0.00939317
F       -0.77464103      -0.18914605      -0.05276007       0.01528365      -0.00689501      -0.00027472      -0.00183094      -0.01908996       0.02594617
Cl       3.55943099      -0.10855915       1.12143947      -0.01508750       0.04939759       0.08412765      -0.00169686       0.05962570       0.08143339
H        1.04517099      -0.49465896       0.80811713       0.01576688      -0.01894730       0.00866079       0.02172345      -0.01194591      -0.01826078
C        1.11462959      -0.71713587      -1.27945059      -0.01913766      -0.01995648      -0.07109754      -0.02325908       0.00031880      -0.02061011
N        1.44001597      -1.27580950      -2.25853459      -0.02423452       0.01417354      -0.00072069      -0.01789252       0.01259749      -0.02591910
C        0.52873345       2.07434388       1.27232115       0.01371199      -0.00611124       0.00198392       0.00747979      -0.00571739      -0.00579853
H       -0.51055497       1.82772803       1.49780095       0.01589201      -0.00006018      -0.01315568       0.00051404       0.02213951      -0.00774369
H        1.18462268       1.67485040       2.04705471       0.01044434      -0.01972897      -0.00692721      -0.00209757      -0.02185356      -0.00632244
H        0.63048609       3.16067004       1.24776963       0.03489150      -0.02141502      -0.00579699       0.03692425      -0.00856823      -0.00685045
C        0.30193288       2.12893126      -1.19352594       0.00028449      -0.00319272       0.00394297      -0.00467811      -0.00245254      -0.00121998
N       -0.23143994       2.68215323      -2.08181694      -0.01610913       0.00072936      -0.00859312      -0.00167256       0.01409635       0.00717946
14
Properties=species:S:1:pos:R:3:mp2_forces:R:3:forces:R:3 R1=CN R2=H R3=CH3 R4=CN lg=F nu=Cl rxn-id=1306 mp2_energy=-23450.52527727177 energy=-23450.50084908979 free_energy=-23450.525273182848 pbc="F F F"
C        0.61761504      -0.02615495      -0.07498735      -0.01705600       0.00945181       0.01981284      -0.00774602      -0.01379050      -0.00548255
C        0.95428228       1.46425360      -0.05861704      -0.00561436       0.01524079       0.00453874      -0.00931260      -0.01475076      -0.00773941
H        2.04428175       1.53118533      -0.14577359      -0.00903567       0.00731382      -0.01650097      -0.00868658      -0.02512698      -0.01191184
F       -0.77404085      -0.17598526      -0.07092536       0.01528365      -0.00689501      -0.00027472      -0.00502103      -0.02745917       0.03415073
Cl       3.56940367      -0.14255001       1.05142244      -0.01508750       0.04939759       0.08412765       0.00147374       0.06544111       0.08910717
H        1.02816493      -0.48831948       0.82146740       0.01576688      -0.01894730       0.00866079       0.02659621      -0.01379859      -0.02015918
C        1.13089425      -0.71900301      -1.26375964      -0.01913766      -0.01995648      -0.07109754      -0.02769930       0.00037486      -0.02301002
N        1.45388568      -1.28781576      -2.23779181      -0.02423452       0.01417354      -0.00072069      -0.01422871       0.01704705      -0.02847001
C        0.52127490       2.07831861       1.27631613       0.01371199      -0.00611124       0.00198392       0.00746900      -0.00567126      -0.00706080
H       -0.51681217       1.82177299       1.49639456       0.01589201      -0.00006018      -0.01315568      -0.00022170       0.02633456      -0.00531376
H        1.17541053       1.68420643       2.05546710       0.01044434      -0.01972897      -0.00692721      -0.00122130      -0.02170432      -0.00830680
H        0.61270721       3.16562012       1.25392474       0.03489150      -0.02141502      -0.00579699       0.04038701      -0.00841215      -0.01106892
C        0.30686947       2.13040491      -1.19124217       0.00028449      -0.00319272       0.00394297      -0.00607719      -0.00208516      -0.00195374
N       -0.22896953       2.67424223      -2.08380951      -0.01610913       0.00072936      -0.00859312       0.00428846       0.02360132       0.00721911
14
Properties=species:S:1:pos:R:3:mp2_forces:R:3:forces:R:3 R1=CN R2=H R3=CH3 R4=CN lg=F nu=Cl rxn-id=1306 mp2_energy=-23450.52527727177 energy=-23450.48476340732 free_energy=-23450.525273182848 pbc="F F F"
C        0.62420873      -0.01687616      -0.07143425      -0.01705600       0.00945181       0.01981284      -0.01613545      -0.01799070      -0.00671280
C        0.96136706       1.47414224      -0.05382462      -0.00561436       0.01524079       0.00453874      -0.01822432      -0.02012321      -0.00964450
H        2.05068054       1.55021712      -0.13912359      -0.00903567       0.00731382      -0.01650097      -0.01549135      -0.04815842      -0.01025003
F       -0.76943892      -0.15689532      -0.08971009       0.01528365      -0.00689501      -0.00027472      -0.01235711      -0.04361815       0.04306067
Cl       3.56846958      -0.17935845       0.99258094      -0.01508750       0.04939759       0.08412765       0.01717773       0.07009539       0.09841109
H        1.01411517      -0.47938006       0.83354887       0.01576688      -0.01894730       0.00866079       0.03264406      -0.01275377      -0.02347119
C        1.14700251      -0.72073292      -1.24914560      -0.01913766      -0.01995648      -0.07109754      -0.03382691       0.00164681      -0.02722418
N        1.45857846      -1.30376594      -2.21852849      -0.02423452       0.01417354      -0.00072069      -0.00401828       0.02362473      -0.03115431
C        0.51560268       2.08048298       1.28075756       0.01371199      -0.00611124       0.00198392       0.00599541      -0.00351518      -0.00920110
H       -0.51839264       1.80420553       1.49595662       0.01589201      -0.00006018      -0.01315568      -0.00354451       0.03696492       0.00067426
H        1.17209731       1.69453419       2.06223734       0.01044434      -0.01972897      -0.00692721       0.00004365      -0.01968793      -0.01241886
H        0.58746102       3.16927831       1.26304197       0.03489150      -0.02141502      -0.00579699       0.04543184      -0.00559120      -0.01701143
C        0.31154738       2.13255405      -1.18970318       0.00028449      -0.00319272       0.00394297      -0.00636088       0.00064934      -0.00403332
N       -0.22833172       2.66177017      -2.08856757      -0.01610913       0.00072936      -0.00859312       0.00866612       0.03845739       0.00897570
14
Properties=species:S:1:pos:R:3:mp2_forces:R:3:forces:R:3 R1=CN R2=H R3=CH3 R4=CN lg=F nu=Cl rxn-id=1306 mp2_energy=-23450.52527727177 energy=-23450.46779002964 free_energy=-23450.525273182848 pbc="F F F"
C        0.63327282      -0.01075243      -0.06765753      -0.01705600       0.00945181       0.01981284      -0.03297762      -0.01598005      -0.01459550
C        0.96872407       1.48176972      -0.05078819      -0.00561436       0.01524079       0.00453874      -0.02916573      -0.02194926      -0.01296320
H        2.05611208       1.57291535      -0.14037505      -0.00903567       0.00731382      -0.01650097      -0.02067066      -0.08659453       0.00332536
F       -0.76210027      -0.14217853      -0.11116275       0.01528365      -0.00689501      -0.00027472      -0.02806123      -0.05340913       0.05602792
Cl       3.55030978      -0.20676720       0.95249238      -0.01508750       0.04939759       0.08412765       0.05776994       0.06653961       0.11206482
H        0.99955312      -0.47263064       0.84710413       0.01576688      -0.01894730       0.00866079       0.04183300      -0.00651363      -0.03735822
C        1.16498311      -0.72455648      -1.23483823      -0.01913766      -0.01995648      -0.07109754      -0.04919279       0.00849860      -0.03842333
N        1.45586685      -1.31590621      -2.20572978      -0.02423452       0.01417354      -0.00072069       0.01959122       0.02285636      -0.02767660
C        0.51453922       2.08077444       1.28438643       0.01371199      -0.00611124       0.00198392       0.00162494       0.00053244      -0.01135638
H       -0.51284171       1.78075861       1.49915640       0.01589201      -0.00006018      -0.01315568      -0.00931420       0.05044389       0.01076765
H        1.17838123       1.70772337       2.06613395       0.01044434      -0.01972897      -0.00692721       0.00089112      -0.01961312      -0.02119260
H        0.56196152       3.17081852       1.26729963       0.03489150      -0.02141502      -0.00579699       0.04801847      -0.00089306      -0.01654009
C        0.31278121       2.13316053      -1.18729108       0.00028449      -0.00319272       0.00394297      -0.00213753       0.00977482      -0.00983220
N       -0.22657587       2.65504669      -2.09064439      -0.01610913       0.00072936      -0.00859312       0.00179106       0.04630705       0.00775237
14
Properties=species:S:1:pos:R:3:mp2_forces:R:3:forces:R:3 R1=CN R2=H R3=CH3 R4=CN lg=F nu=Cl rxn-id=1306 mp2_energy=-23450.52527727177 energy=-23450.444934454015 free_energy=-23450.525273182848 pbc="F F F"
C        0.64617252      -0.00391116      -0.06360177      -0.01705600       0.00945181       0.01981284      -0.05610324      -0.01453289      -0.02249623
C        0.98173076       1.49007648      -0.04598939      -0.00561436       0.01524079       0.00453874      -0.04879321      -0.02545736      -0.01702639
H        2.06720387       1.59760931      -0.13618490      -0.00903567       0.00731382      -0.01650097      -0.03367031      -0.12602192       0.00823563
F       -0.75084390      -0.12294176      -0.13653590       0.01528365      -0.00689501      -0.00027472      -0.05088195      -0.06664114       0.07934142
Cl       3.53532826      -0.22301321       0.91027087      -0.01508750       0.04939759       0.08412765       0.10645579       0.05448796       0.12644143
H        0.98307757      -0.46631095       0.86173010       0.01576688      -0.01894730       0.00866079       0.06030337      -0.00273471      -0.05586700
C        1.18407206      -0.72852503      -1.22081906      -0.01913766      -0.01995648      -0.07109754      -0.06935038       0.01675959      -0.04914106
N        1.44114291      -1.32756348      -2.19678809      -0.02423452       0.01417354      -0.00072069       0.05711772       0.02085324      -0.01880282
C        0.51330444       2.08056471       1.28798503       0.01371199      -0.00611124       0.00198392      -0.00437298       0.00429987      -0.01236233
H       -0.51216967       1.76620162       1.49020967       0.01589201      -0.00006018      -0.01315568      -0.01594261       0.06351609       0.02958574
H        1.17319135       1.71087852       2.07491572       0.01044434      -0.01972897      -0.00692721       0.00319745      -0.01806822      -0.03073730
H        0.54745240       3.17108794       1.27712128       0.03489150      -0.02141502      -0.00579699       0.05004830       0.00386784      -0.02098451
C        0.31734143       2.13057744      -1.18368632       0.00028449      -0.00319272       0.00394297      -0.00415915       0.02241147      -0.01653967
N       -0.23203683       2.63544530      -2.09054135      -0.01610913       0.00072936      -0.00859312       0.00615120       0.06726015       0.00035309
14
Properties=species:S:1:pos:R:3:mp2_forces:R:3:forces:R:3 R1=CN R2=H R3=CH3 R4=CN lg=F nu=Cl rxn-id=1306 mp2_energy=-23450.52527727177 energy=-23450.3982534284 free_energy=-23450.525273182848 pbc="F F F"
C        0.66536232       0.00617011      -0.05817935      -0.01705600       0.00945181       0.01981284      -0.10322568      -0.01035531      -0.03794711
C        1.00063926       1.50299549      -0.04028068      -0.00561436       0.01524079       0.00453874      -0.08446686      -0.03016614      -0.02444875
H        2.08135834       1.64359219      -0.13398033      -0.00903567       0.00731382      -0.01650097      -0.04645978      -0.21914114       0.01370233
F       -0.73419715      -0.09196430      -0.16591897       0.01528365      -0.00689501      -0.00027472      -0.08612147      -0.09801479       0.08653520
Cl       3.50092479      -0.24984017       0.85883064      -0.01508750       0.04939759       0.08412765       0.20426306       0.03394044       0.15459576
H        0.96016080      -0.46075179       0.87854878       0.01576688      -0.01894730       0.00866079       0.09975982       0.02296670      -0.07492268
C        1.20775286      -0.73318271      -1.20323066      -0.01913766      -0.01995648      -0.07109754      -0.08550065       0.02783151      -0.05362516
N        1.42513272      -1.34249455      -2.18293107      -0.02423452       0.01417354      -0.00072069       0.09324118       0.01840475      -0.01354978
C        0.51374621       2.07894418       1.29283962       0.01371199      -0.00611124       0.00198392      -0.01419436       0.01287804      -0.01134008
H       -0.50564657       1.73821431       1.48055223       0.01589201      -0.00006018      -0.01315568      -0.03059745       0.08830422       0.06082434
H        1.17322540       1.71675381       2.08391188       0.01044434      -0.01972897      -0.00692721       0.00484324      -0.01399539      -0.04058828
H        0.52364865       3.16979215       1.28963954       0.03489150      -0.02141502      -0.00579699       0.04972619       0.01379744      -0.02103989
C        0.32160489       2.12560739      -1.17935085       0.00028449      -0.00319272       0.00394297      -0.00599901       0.05657542      -0.02554224
N       -0.23874537       2.60633964      -2.09236486      -0.01610913       0.00072936      -0.00859312       0.00473177       0.09697425      -0.01265367
14
Properties=species:S:1:pos:R:3:mp2_forces:R:3:forces:R:3 R1=CN R2=H R3=CH3 R4=CN lg=F nu=Cl rxn-id=1306 mp2_energy=-23450.52527727177 energy=-23450.25478966772 free_energy=-23450.525273182848 pbc="F F F"
C        0.70964263       0.00874775      -0.04149920      -0.01705600       0.00945181       0.01981284      -0.36240551       0.01578757      -0.10773265
C        1.03536108       1.51406273      -0.02964487      -0.00561436       0.01524079       0.00453874      -0.17329882      -0.02909540      -0.04587010
H        2.09874342       1.74114722      -0.14276017      -0.00903567       0.00731382      -0.01650097      -0.04814265      -0.47659866       0.05448252
F       -0.69873533      -0.05121107      -0.19973388       0.01528365      -0.00689501      -0.00027472      -0.14193290      -0.15130138       0.06410844
Cl       3.41386295      -0.26192757       0.79251317      -0.01508750       0.04939759       0.08412765       0.50402499      -0.04141815       0.23400225
H        0.91923707      -0.47470534       0.90921589       0.01576688      -0.01894730       0.00866079       0.24134862       0.12320516      -0.13678306
C        1.24211387      -0.74706225      -1.17932418      -0.01913766      -0.01995648      -0.07109754      -0.08397515       0.04981506      -0.04971361
N        1.38669009      -1.35270369      -2.17604847      -0.02423452       0.01417354      -0.00072069       0.14764412       0.01274339       0.02946010
C        0.51930685       2.07285362       1.29740669       0.01371199      -0.00611124       0.00198392      -0.03527087       0.03383333      -0.00521027
H       -0.49270043       1.69949340       1.45574521       0.01589201      -0.00006018      -0.01315568      -0.05871791       0.13409634       0.12990453
H        1.17138048       1.72379785       2.10088880       0.01044434      -0.01972897      -0.00692721       0.01121263      -0.01621200      -0.06437589
H        0.50181871       3.16311377       1.29475072       0.03489150      -0.02141502      -0.00579699       0.02862371       0.03606632       0.00547878
C        0.32287407       2.10083712      -1.16767408       0.00028449      -0.00319272       0.00394297       0.01743346       0.20104162      -0.04591908
N       -0.23462830       2.57373220      -2.08574972      -0.01610913       0.00072936      -0.00859312      -0.04654370       0.10803680      -0.06183195
14
Properties=species:S:1:pos:R:3:mp2_forces:R:3:forces:R:3 R1=CN R2=H R3=CH3 R4=CN lg=F nu=Cl rxn-id=1306 mp2_energy=-23450.52527727177 energy=-23450.012992006195 free_energy=-23450.525273182848 pbc="F F F"
C        0.77306743       0.00623014      -0.02275636      -0.01705600       0.00945181       0.01981284      -1.37344797       0.00630326      -0.28828528
C        1.06563714       1.51903983      -0.02171640      -0.00561436       0.01524079       0.00453874      -0.24289607      -0.04176937      -0.05345590
H        2.10728396       1.82449327      -0.15218696      -0.00903567       0.00731382      -0.01650097      -0.02366329      -0.64862449       0.07669861
F       -0.67343622      -0.02465395      -0.21044575       0.01528365      -0.00689501      -0.00027472       0.18032719      -0.16028372       0.04010422
Cl       3.32702609      -0.25332360       0.75217301      -0.01508750       0.04939759       0.08412765       0.87329332      -0.11740680       0.33280290
H        0.87734075      -0.49632482       0.93298689       0.01576688      -0.01894730       0.00866079       0.51621405       0.18289760      -0.16354709
C        1.25688362      -0.75742430      -1.17259480      -0.01913766      -0.01995648      -0.07109754       0.03345219       0.06407550       0.05831640
N        1.35928506      -1.35546767      -2.17948019      -0.02423452       0.01417354      -0.00072069       0.15115644      -0.00510490       0.02523172
C        0.52522751       2.06668519       1.29809472       0.01371199      -0.00611124       0.00198392      -0.03819814       0.05538746       0.00793539
H       -0.48289961       1.67585506       1.43229511       0.01589201      -0.00006018      -0.01315568      -0.06655210       0.16029515       0.17133459
H        1.16900428       1.72609648       2.11208218       0.01044434      -0.01972897      -0.00692721       0.01589580      -0.02466215      -0.07054386
H        0.49674207       3.15643157       1.29361307       0.03489150      -0.02141502      -0.00579699       0.00157549       0.05189228       0.02258387
C        0.31983634       2.06611285      -1.15930266       0.00028449      -0.00319272       0.00394297       0.07270637       0.39996978      -0.04891469
N       -0.22603126       2.55642569      -2.07467596      -0.01610913       0.00072936      -0.00859312      -0.09986327       0.07703041      -0.11026087
14
Properties=species:S:1:pos:R:3:mp2_forces:R:3:forces:R:3 R1=CN R2=H R3=CH3 R4=CN lg=F nu=Cl rxn-id=1306 mp2_energy=-23450.52527727177 energy=-23449.667781831944 free_energy=-23450.525273182848 pbc="F F F"
C        0.86164237       0.00593686      -0.00479378      -0.01705600       0.00945181       0.01981284      -2.70793384       0.03664977      -0.51606916
C        1.08150165       1.52195538      -0.01828025      -0.00561436       0.01524079       0.00453874      -0.20919889      -0.02926028      -0.03418434
H        2.10907172       1.86626047      -0.15698044      -0.00903567       0.00731382      -0.01650097       0.01056758      -0.58629537       0.06831729
F       -0.68485188      -0.01390637      -0.21341761       0.01528365      -0.00689501      -0.00027472       0.89741329      -0.10821366       0.09124973
Cl       3.27120831      -0.24615068       0.73035520      -0.01508750       0.04939759       0.08412765       1.04707003      -0.13745234       0.37550635
H        0.84395868      -0.50757518       0.94350548       0.01576688      -0.01894730       0.00866079       0.69450047       0.11052770      -0.02888572
C        1.25448339      -0.76028961      -1.17401945      -0.01913766      -0.01995648      -0.07109754       0.23694471      -0.01496967       0.02931148
N        1.34944833      -1.35694476      -2.18249463      -0.02423452       0.01417354      -0.00072069       0.10042000       0.00168942       0.03128632
C        0.52759644       2.06303323       1.29761460       0.01371199      -0.00611124       0.00198392      -0.02612151       0.06560126       0.01720156
H       -0.47852711       1.66500196       1.42125414       0.01589201      -0.00006018      -0.01315568      -0.05262576       0.14928018       0.15747151
H        1.16795699       1.72775352       2.11666287       0.01044434      -0.01972897      -0.00692721       0.02091276      -0.02806982      -0.06463080
H        0.49598152       3.15301381       1.29245430       0.03489150      -0.02141502      -0.00579699      -0.01041636       0.04748495       0.02234429
C        0.31518209       2.04080909      -1.15652967       0.00028449      -0.00319272       0.00394297       0.10968479       0.44442395      -0.02526037
N       -0.21968534       2.55127800      -2.06724485      -0.01610913       0.00072936      -0.00859312      -0.11121727       0.04860389      -0.12365814
14
Properties=species:S:1:pos:R:3:mp2_forces:R:3:forces:R:3 R1=CN R2=H R3=CH3 R4=CN lg=F nu=Cl rxn-id=1306 mp2_energy=-23450.52527727177 energy=-23449.34374943346 free_energy=-23450.525273182848 pbc="F F F"
C        0.93941943       0.00498244       0.01005080      -0.01705600       0.00945181       0.01981284      -2.78789448       0.07967193      -0.55450467
C        1.08751126       1.52283828      -0.01733685      -0.00561436       0.01524079       0.00453874      -0.14299589       0.00192409      -0.01923975
H        2.10879316       1.88310931      -0.15889923      -0.00903567       0.00731382      -0.01650097       0.02096397      -0.44905620       0.05420129
F       -0.71061472      -0.01076171      -0.21606589       0.01528365      -0.00689501      -0.00027472       1.01285627      -0.06605355       0.09931003
Cl       3.24119938      -0.24216478       0.71943650      -0.01508750       0.04939759       0.08412765       0.95099420      -0.11465094       0.33316951
H        0.82409012      -0.51064349       0.94431068       0.01576688      -0.01894730       0.00866079       0.63102186       0.00914223       0.11524357
C        1.24773715      -0.76019433      -1.17524168      -0.01913766      -0.01995648      -0.07109754       0.28440250      -0.04734012      -0.00224843
N        1.34640453      -1.35705459      -2.18289499      -0.02423452       0.01417354      -0.00072069       0.06944885      -0.01848468      -0.00722707
C        0.52830026       2.06110860       1.29711101       0.01371199      -0.00611124       0.00198392      -0.01771051       0.05851623       0.01502252
H       -0.47702262       1.66057289       1.41671630       0.01589201      -0.00006018      -0.01315568      -0.03906498       0.12068719       0.12504992
H        1.16734039       1.72856204       2.11850482       0.01044434      -0.01972897      -0.00692721       0.02167386      -0.02417180      -0.05672916
H        0.49610716       3.15160507       1.29183055       0.03489150      -0.02141502      -0.00579699      -0.01153380       0.03711556       0.01945487
C        0.31219058       2.02806466      -1.15567176       0.00028449      -0.00319272       0.00394297       0.09695246       0.37828410      -0.02108177
N       -0.21648891       2.55015135      -2.06376433      -0.01610913       0.00072936      -0.00859312      -0.08911432       0.03441596      -0.10042085
14
Properties=species:S:1:pos:R:3:mp2_forces:R:3:forces:R:3 R1=CN R2=H R3=CH3 R4=CN lg=F nu=Cl rxn-id=1306 mp2_energy=-23450.52527727177 energy=-23449.098093223103 free_energy=-23450.525273182848 pbc="F F F"
C        1.00815960       0.00309535       0.02374295      -0.01705600       0.00945181       0.01981284      -2.14495451       0.08499726      -0.44568199
C        1.09104718       1.52281825      -0.01687982      -0.00561436       0.01524079       0.00453874      -0.09377386       0.02218643      -0.01391080
H        2.10829373       1.89419955      -0.16020680      -0.00903567       0.00731382      -0.01650097       0.01803316      -0.30866573       0.04046821
F       -0.73556938      -0.00908518      -0.21853750       0.01528365      -0.00689501      -0.00027472       0.79493100      -0.03586774       0.07078435
Cl       3.21782163      -0.23930723       0.71111037      -0.01508750       0.04939759       0.08412765       0.71911611      -0.07722765       0.24435415
H        0.80859545      -0.51078702       0.94145421       0.01576688      -0.01894730       0.00866079       0.45699827      -0.05574240       0.17976649
C        1.24076281      -0.75929177      -1.17547747      -0.01913766      -0.01995648      -0.07109754       0.22213013      -0.05126079      -0.02110447