16
Properties=species:S:1:pos:R:3:mp2_forces:R:3:forces:R:3 R1=CN R2=H R3=CH3 R4=CH3 lg=F nu=F rxn-id=1315 mp2_energy=-12213.396678726134 energy=-12213.396677069832 free_energy=-12213.396677069832 pbc="F F F"
C        0.46859229      -0.04394615      -0.01538710      -0.01800504      -0.00009681      -0.04343175      -0.01801957      -0.00008283      -0.04339947
C        0.70814789       1.45754973      -0.06887224       0.04355933      -0.02611303      -0.02468073       0.04355772      -0.02612497      -0.02467228
H        1.79785102       1.48657496      -0.13076333       0.06946368       0.03941777      -0.01287618       0.06945868       0.03943336      -0.01288706
F       -0.92899705      -0.30743382      -0.06406412      -0.02729916       0.00153287       0.02666638      -0.02726703       0.00155369       0.02664184
F        2.85125551      -0.05945855       0.55140752      -0.01458346       0.05360987       0.08150548      -0.01457980       0.05360309       0.08150178
H        0.89136877      -0.45544180       0.89541683       0.00671306      -0.00242338      -0.05232329       0.00670213      -0.00243554      -0.05232857
C        1.07640298      -0.74621800      -1.15525899       0.00084699      -0.00753097       0.01533507       0.00082184      -0.00746282       0.01542042
N        1.39661869      -1.31806042      -2.13020895      -0.04423096       0.02797563      -0.00444985      -0.04420435       0.02789501      -0.00452448
C        0.28135525       2.08377630       1.25371352      -0.00123727      -0.01671813      -0.00874930      -0.00122944      -0.01674393      -0.00877892
H       -0.76049076       1.84497786       1.48963764      -0.02801216      -0.00274872      -0.00155778      -0.02801404      -0.00273877      -0.00154882
H        0.92577267       1.70261990       2.04887288       0.01506503      -0.02195345      -0.00868467       0.01505769      -0.02194740      -0.00867678
H        0.37954401       3.17387694       1.22257503       0.02100989       0.00913190       0.00295564       0.02101054       0.00913697       0.00296338
C        0.02491075       2.11230638      -1.26429152      -0.00818260      -0.01944391       0.01156546      -0.00818026      -0.01946426       0.01158968
H        0.32116842       1.63582121      -2.20356907       0.00883437      -0.00103788       0.01930759       0.00883263      -0.00103169       0.01929608
H       -1.06392924       2.04806459      -1.18105898      -0.02104091      -0.00890842      -0.00411431      -0.02104552      -0.00890000      -0.00412615
H        0.29797362       3.17162247      -1.32414054      -0.00290080      -0.02469334       0.00353225      -0.00290121      -0.02468990       0.00352936
16
Properties=species:S:1:pos:R:3:mp2_forces:R:3:forces:R:3 R1=CN R2=H R3=CH3 R4=CH3 lg=F nu=F rxn-id=1315 mp2_energy=-12213.396678726134 energy=-12213.449904201969 free_energy=-12213.396677069832 pbc="F F F"
C        0.45967203      -0.04169250      -0.03742886      -0.01800504      -0.00009681      -0.04343175      -0.00115302      -0.00447400      -0.00850409
C        0.71254895       1.45715738      -0.09311069       0.04355933      -0.02611303      -0.02468073      -0.00553069      -0.00490640      -0.01146760
H        1.80141511       1.50105121      -0.16785159       0.06946368       0.03941777      -0.01287618      -0.00503829      -0.00788506      -0.00865165
F       -0.93741299      -0.29817911      -0.05096428      -0.02729916       0.00153287       0.02666638       0.00267469      -0.01759636       0.03442927
F        2.78345666      -0.04970332       0.82391247      -0.01458346       0.05360987       0.08150548      -0.01615021       0.03352468       0.11020153
H        0.93461964      -0.44974222       0.85334178       0.00671306      -0.00242338      -0.05232329       0.05102160       0.00962558      -0.02348423
C        1.03373158      -0.73585741      -1.19802518       0.00084699      -0.00753097       0.01533507      -0.02654152       0.00086031      -0.02542383
N        1.38768759      -1.29096936      -2.16996666      -0.04423096       0.02797563      -0.00444985      -0.00801925       0.00241988      -0.01937638
C        0.32164915       2.07761217       1.24445114      -0.00123727      -0.01671813      -0.00874930       0.00400790      -0.00888713      -0.00689121
H       -0.71999619       1.85584059       1.49954433      -0.02801216      -0.00274872      -0.00155778       0.00027441       0.00692692      -0.00750739
H        0.98366858       1.66677297       2.00943871       0.01506503      -0.02195345      -0.00868467       0.00149005      -0.02856754      -0.01547612
H        0.43951313       3.16664756       1.22233721       0.02100989       0.00913190       0.00295564       0.02260099      -0.01059261      -0.00023225
C        0.00259993       2.10523131      -1.27621887      -0.00818260      -0.01944391       0.01156546      -0.00472326       0.00457662      -0.00592303
H        0.33498354       1.67342695      -2.22498599       0.00883437      -0.00103788       0.01930759      -0.01503116       0.00551669      -0.01008475
H       -1.08072961       1.96899059      -1.20321180      -0.02104091      -0.00890842      -0.00411431      -0.00634684       0.01659471       0.00033955
H        0.21013772       3.18004480      -1.30725313      -0.00290080      -0.02469334       0.00353225       0.00646459       0.00286372      -0.00194783
16
Properties=species:S:1:pos:R:3:mp2_forces:R:3:forces:R:3 R1=CN R2=H R3=CH3 R4=CH3 lg=F nu=F rxn-id=1315 mp2_energy=-12213.396678726134 energy=-12213.42825089914 free_energy=-12213.396677069832 pbc="F F F"
C        0.45923141      -0.03595634      -0.03357678      -0.01800504      -0.00009681      -0.04343175      -0.00620294      -0.00701269      -0.00536379
C        0.71860374       1.46315884      -0.08581406       0.04355933      -0.02611303      -0.02468073      -0.01132415      -0.00882020      -0.01145130
H        1.80654143       1.51147335      -0.16669107       0.06946368       0.03941777      -0.01287618      -0.00914843      -0.02426793      -0.00391691
F       -0.94227026      -0.27708376      -0.09807463      -0.02729916       0.00153287       0.02666638      -0.00169741      -0.02803776       0.04206108
F        2.78764010      -0.07691465       0.72963296      -0.01458346       0.05360987       0.08150548       0.00036883       0.04140397       0.09329772
H        0.87517386      -0.45720858       0.87620838       0.00671306      -0.00242338      -0.05232329       0.05539288       0.01215124      -0.01990486
C        1.06464829      -0.74083290      -1.17109645       0.00084699      -0.00753097       0.01533507      -0.02780946       0.00051670      -0.02239315
N        1.40638587      -1.30639358      -2.14171451      -0.04423096       0.02797563      -0.00444985      -0.00194131       0.00581047      -0.01637586
C        0.32429860       2.08428731       1.25055598      -0.00123727      -0.01671813      -0.00874930      -0.00084976      -0.00958498      -0.00812619
H       -0.71279949       1.84694136       1.50996508      -0.02801216      -0.00274872      -0.00155778      -0.00610263       0.01149644      -0.00731366
H        0.99246573       1.68852354       2.01841182       0.01506503      -0.02195345      -0.00868467      -0.00446561      -0.03063110      -0.01598300
H        0.42487862       3.17497145       1.22488297       0.02100989       0.00913190       0.00295564       0.02285265      -0.01151039      -0.00355174
C        0.00258811       2.10381130      -1.27004225      -0.00818260      -0.01944391       0.01156546      -0.00363390       0.00666763      -0.00673402
H        0.34489137       1.67700181      -2.21761030       0.00883437      -0.00103788       0.01930759      -0.01675908       0.00675723      -0.01157524
H       -1.07805672       1.94921555      -1.20047562      -0.02104091      -0.00890842      -0.00411431      -0.00787003       0.03170298      -0.00338565
H        0.19332418       3.18163692      -1.30055292      -0.00290080      -0.02469334       0.00353225       0.01919034       0.00335840       0.00071655
16
Properties=species:S:1:pos:R:3:mp2_forces:R:3:forces:R:3 R1=CN R2=H R3=CH3 R4=CH3 lg=F nu=F rxn-id=1315 mp2_energy=-12213.396678726134 energy=-12213.40566144871 free_energy=-12213.396677069832 pbc="F F F"
C        0.47174834      -0.02815507      -0.02806952      -0.01800504      -0.00009681      -0.04343175      -0.02786415      -0.00950037      -0.00638940
C        0.73461970       1.47242785      -0.07587829       0.04355933      -0.02611303      -0.02468073      -0.03236595      -0.01572525      -0.01251256
H        1.82069502       1.53873318      -0.16175894       0.06946368       0.03941777      -0.01287618      -0.02401313      -0.07478303       0.00684112
F       -0.93495821      -0.24837223      -0.13267072      -0.02729916       0.00153287       0.02666638      -0.01514904      -0.05266732       0.05216625
F        2.79344997      -0.10194144       0.63705431      -0.01458346       0.05360987       0.08150548       0.04304263       0.03195459       0.07940629
H        0.83160937      -0.46372034       0.89617018       0.00671306      -0.00242338      -0.05232329       0.07675617       0.02521459      -0.02301493
C        1.08965665      -0.74433292      -1.15073006       0.00084699      -0.00753097       0.01533507      -0.02805214       0.00531957      -0.01707853
N        1.39471949      -1.32032627      -2.12811125      -0.04423096       0.02797563      -0.00444985       0.02074164       0.00948989      -0.00415570
C        0.31967815       2.08927236       1.25606558      -0.00123727      -0.01671813      -0.00874930      -0.00841489      -0.00794403      -0.00779116
H       -0.71574887       1.83058854       1.50014753      -0.02801216      -0.00274872      -0.00155778      -0.01391592       0.02653754       0.01283518
H        0.98133203       1.70857752       2.03737675       0.01506503      -0.02195345      -0.00868467      -0.00430909      -0.03048568      -0.02235958
H        0.39866486       3.18168382       1.23200448       0.02100989       0.00913190       0.00295564       0.02558159      -0.00995629      -0.00942476
C        0.00926250       2.09885869      -1.26232173      -0.00818260      -0.01944391       0.01156546      -0.00660995       0.01528201      -0.01150735
H        0.34815177       1.66155506      -2.20634083       0.00883437      -0.00103788       0.01930759      -0.01566400       0.01794494      -0.01575996
H       -1.06851924       1.93471819      -1.18226257      -0.02104091      -0.00890842      -0.00411431      -0.01669442       0.05776784      -0.02342136
H        0.19318330       3.17706466      -1.30666632      -0.00290080      -0.02469334       0.00353225       0.02693065       0.01155099       0.00216644
16
Properties=species:S:1:pos:R:3:mp2_forces:R:3:forces:R:3 R1=CN R2=H R3=CH3 R4=CH3 lg=F nu=F rxn-id=1315 mp2_energy=-12213.396678726134 energy=-12213.358418174717 free_energy=-12213.396677069832 pbc="F F F"
C        0.49564619      -0.01969418      -0.02289744      -0.01800504      -0.00009681      -0.04343175      -0.16119713      -0.00788372      -0.03671377
C        0.75887221       1.48587341      -0.06844082       0.04355933      -0.02611303      -0.02468073      -0.08005409      -0.03064188      -0.01739658
H        1.83813193       1.60069295      -0.17164061       0.06946368       0.03941777      -0.01287618      -0.04590348      -0.21363778       0.03011573
F       -0.92010729      -0.21130524      -0.17932536      -0.02729916       0.00153287       0.02666638      -0.04124576      -0.06927549       0.06209350
F        2.75913474      -0.13076568       0.58506359      -0.01458346       0.05360987       0.08150548       0.19517409      -0.00232202       0.08601420
H        0.77347031      -0.47387916       0.91867381       0.00671306      -0.00242338      -0.05232329       0.15912872       0.06497750      -0.06088451
C        1.11527767      -0.74944000      -1.13415973       0.00084699      -0.00753097       0.01533507      -0.01211951       0.02794358       0.00942706
N        1.37240867      -1.32808268      -2.12487526      -0.04423096       0.02797563      -0.00444985       0.06384303       0.01104705       0.03463422
C        0.32671911       2.09335927       1.26165422      -0.00123727      -0.01671813      -0.00874930      -0.02288790      -0.00573331      -0.00722153
H       -0.70347021       1.80482791       1.49140085      -0.02801216      -0.00274872      -0.00155778      -0.03038450       0.05216104       0.04928490
H        0.98756382       1.72739730       2.05094303       0.01506503      -0.02195345      -0.00868467      -0.00337945      -0.03493515      -0.03666076
H        0.37769542       3.18748940       1.24115592       0.02100989       0.00913190       0.00295564       0.02289204      -0.00738986      -0.01221010
C        0.01261962       2.08884564      -1.25450150      -0.00818260      -0.01944391       0.01156546      -0.01534295       0.03852902      -0.02164380
H        0.35714012       1.64674832      -2.19446631       0.00883437      -0.00103788       0.01930759      -0.02135755       0.03612660      -0.02188854
H       -1.05795073       1.89505578      -1.16425209      -0.02104091      -0.00890842      -0.00411431      -0.03635507       0.10758398      -0.04962747
H        0.17439325       3.16950856      -1.31032371      -0.00290080      -0.02469334       0.00353225       0.02918953       0.03345043      -0.00732254
16
Properties=species:S:1:pos:R:3:mp2_forces:R:3:forces:R:3 R1=CN R2=H R3=CH3 R4=CH3 lg=F nu=F rxn-id=1315 mp2_energy=-12213.396678726134 energy=-12213.147360280458 free_energy=-12213.396677069832 pbc="F F F"
C        0.58325835      -0.01573093      -0.00518564      -0.01800504      -0.00009681      -0.04343175      -1.13134874      -0.04039308      -0.23498661
C        0.79944370       1.50283898      -0.05904098       0.04355933      -0.02611303      -0.02468073      -0.14459249      -0.06513158      -0.01835478
H        1.86064235       1.71678875      -0.18524403       0.06946368       0.03941777      -0.01287618      -0.05886503      -0.41256569       0.05168106
F       -0.89448696      -0.18030066      -0.21821996      -0.02729916       0.00153287       0.02666638       0.21508487       0.01100770       0.07676516
F        2.66030230      -0.12967171       0.53157996      -0.01458346       0.05360987       0.08150548       0.65516937      -0.08829476       0.14957660
H        0.69249830      -0.50429016       0.95122646       0.00671306      -0.00242338      -0.05232329       0.39272052       0.14182025      -0.13999651
C        1.12630276      -0.76658846      -1.13639656       0.00084699      -0.00753097       0.01533507       0.15373767       0.05839337       0.10714530
N        1.33515352      -1.34474750      -2.13988422      -0.04423096       0.02797563      -0.00444985       0.06859164       0.03738910       0.11699731
C        0.33570681       2.09544187       1.26634676      -0.00123727      -0.01671813      -0.00874930      -0.02958856       0.00058750      -0.00266437
H       -0.69070599       1.77732953       1.46709791      -0.02801216      -0.00274872      -0.00155778      -0.04254735       0.07576023       0.08677235
H        0.98588840       1.74436612       2.07126940       0.01506503      -0.02195345      -0.00868467       0.00479504      -0.04336906      -0.04995317
H        0.36330686       3.19047152       1.24922003       0.02100989       0.00913190       0.00295564       0.00159536      -0.00109455      -0.00539368
C        0.02046525       2.07150734      -1.24251248      -0.00818260      -0.01944391       0.01156546      -0.02332893       0.07491205      -0.02924859
H        0.36313428       1.62492857      -2.18141251       0.00883437      -0.00103788       0.01930759      -0.01337903       0.04042354      -0.01165123
H       -1.04060148       1.85071912      -1.13464284      -0.02104091      -0.00890842      -0.00411431      -0.05753407       0.15337879      -0.06722357
H        0.16723636       3.15356922      -1.31019273      -0.00290080      -0.02469334       0.00353225       0.00948971       0.05717618      -0.02946527
16
Properties=species:S:1:pos:R:3:mp2_forces:R:3:forces:R:3 R1=CN R2=H R3=CH3 R4=CH3 lg=F nu=F rxn-id=1315 mp2_energy=-12213.396678726134 energy=-12212.865977747217 free_energy=-12213.396677069832 pbc="F F F"
C        0.70209900      -0.01131051       0.01941322      -0.01800504      -0.00009681      -0.04343175      -1.27795339      -0.02988885      -0.27321447
C        0.81476910       1.50984943      -0.05717620       0.04355933      -0.02611303      -0.02468073      -0.07422073      -0.02765783      -0.00932176
H        1.86700814       1.76054941      -0.19032722       0.06946368       0.03941777      -0.01287618      -0.03068727      -0.23740419       0.02823043
F       -0.91663181      -0.18206266      -0.22675869      -0.02729916       0.00153287       0.02666638       0.42423116       0.04996967       0.08027911
F        2.59214604      -0.11979894       0.51554088      -0.01458346       0.05360987       0.08150548       0.52914627      -0.06476836       0.11185940
H        0.65167827      -0.51836384       0.96600781       0.00671306      -0.00242338      -0.05232329       0.29350925       0.05400827      -0.01733762
C        1.11079920      -0.77390036      -1.14883211       0.00084699      -0.00753097       0.01533507       0.18967127       0.03048636       0.08803213
N        1.32689272      -1.34938521      -2.15079296      -0.04423096       0.02797563      -0.00444985       0.02402661       0.00079746       0.04085500
C        0.33843217       2.09509369       1.26657214      -0.00123727      -0.01671813      -0.00874930      -0.01226527       0.00438586       0.00088895
H       -0.68662119       1.76879164       1.45756455      -0.02801216      -0.00274872      -0.00155778      -0.02337866       0.04499372       0.04814881
H        0.98487183       1.74847227       2.07645630       0.01506503      -0.02195345      -0.00868467       0.00510892      -0.02719502      -0.03030360
H        0.36262595       3.19031061       1.25013011       0.02100989       0.00913190       0.00295564      -0.00759125       0.00129913       0.00228987
C        0.02309591       2.06404918      -1.23929206      -0.00818260      -0.01944391       0.01156546      -0.00989524       0.05180824      -0.01515660
H        0.36352378       1.62030801      -2.18003326       0.00883437      -0.00103788       0.01930759      -0.00302161       0.01860860      -0.00179895
H       -1.03451195       1.83625728      -1.12655873      -0.02104091      -0.00890842      -0.00411431      -0.03157700       0.09784589      -0.03055592
H        0.16736766       3.14777161      -1.30790520      -0.00290080      -0.02469334       0.00353225       0.00489693       0.03271103      -0.02289478
16
Properties=species:S:1:pos:R:3:mp2_forces:R:3:forces:R:3 R1=CN R2=H R3=CH3 R4=CH3 lg=F nu=F rxn-id=1315 mp2_energy=-12213.396678726134 energy=-12212.758206932627 free_energy=-12213.396677069832 pbc="F F F"
C        0.80747013      -0.00879820       0.04155200      -0.01800504      -0.00009681      -0.04343175      -0.00778183       0.00151394      -0.00453767
C        0.82101120       1.51229761      -0.05648510       0.04355933      -0.02611303      -0.02468073       0.00112544       0.00199799      -0.00093814
H        1.86970625       1.78037899      -0.19232351       0.06946368       0.03941777      -0.01287618       0.00178020       0.00193151       0.00417718
F       -0.95111281      -0.18666037      -0.23377649      -0.02729916       0.00153287       0.02666638       0.00936432      -0.00622838      -0.00448914
F        2.54903142      -0.11399033       0.50613401      -0.01458346       0.05360987       0.08150548       0.00888935       0.00510516      -0.00237656
H        0.62794032      -0.52224054       0.96748830       0.00671306      -0.00242338      -0.05232329       0.00689223       0.00710707       0.00132253
C        1.09507872      -0.77634450      -1.15529565       0.00084699      -0.00753097       0.01533507       0.00130935      -0.00384531       0.00155201
N        1.32435431      -1.35077361      -2.15445380      -0.04423096       0.02797563      -0.00444985      -0.00763624      -0.01206994       0.00367638
C        0.33916610       2.09449724       1.26646240      -0.00123727      -0.01671813      -0.00874930      -0.00345456      -0.00278316      -0.00042896
H       -0.68497484       1.76461855       1.45323930      -0.02801216      -0.00274872      -0.00155778      -0.00356909      -0.00530777      -0.00400128
H        0.98409139       1.75036822       2.07893078       0.01506503      -0.02195345      -0.00868467      -0.00436534      -0.00436690      -0.00047245
H        0.36279168       3.18996654       1.25019429       0.02100989       0.00913190       0.00295564      -0.00549846      -0.00275256       0.00313380
C        0.02403575       2.06012814      -1.23799684      -0.00818260      -0.01944391       0.01156546       0.00146498       0.00464920       0.00045305
H        0.36305024       1.61846277      -2.17981777       0.00883437      -0.00103788       0.01930759      -0.00870330      -0.00370013       0.00084453
H       -1.03189419       1.82941915      -1.12322644      -0.02104091      -0.00890842      -0.00411431      -0.00007523       0.01564227       0.00950671
H        0.16779914       3.14530193      -1.30661690      -0.00290080      -0.02469334       0.00353225       0.01025818       0.00310703      -0.00742198
16
Properties=species:S:1:pos:R:3:mp2_forces:R:3:forces:R:3 R1=CN R2=H R3=CH3 R4=CH3 lg=F nu=F rxn-id=1315 mp2_energy=-12213.396678726134 energy=-12212.861402634559 free_energy=-12213.396677069832 pbc="F F F"
C        0.91320338      -0.00696758       0.06339259      -0.01800504      -0.00009681      -0.04343175       1.27393671       0.02567861       0.26402367
C        0.82676020       1.51278422      -0.05565118       0.04355933      -0.02611303      -0.02468073       0.07085315       0.00831430       0.00928325
H        1.87246703       1.79794345      -0.19384842       0.06946368       0.03941777      -0.01287618       0.03508551       0.21508182      -0.01433056
F       -0.99158864      -0.19217142      -0.24091274      -0.02729916       0.00153287       0.02666638      -0.48070075      -0.07325383      -0.09063663
F        2.51334764      -0.11001011       0.49954938      -0.01458346       0.05360987       0.08150548      -0.42400630       0.05333907      -0.08249972
H        0.60629585      -0.51962517       0.95741460       0.00671306      -0.00242338      -0.05232329      -0.25576923       0.03800084      -0.12045113
C        1.07782077      -0.77580901      -1.15789470       0.00084699      -0.00753097       0.01533507      -0.20480536      -0.00875460      -0.04958332
N        1.32090919      -1.35033809      -2.15405263      -0.04423096       0.02797563      -0.00444985      -0.05252201       0.00243829       0.02458482
C        0.33974288       2.09334899       1.26648186      -0.00123727      -0.01671813      -0.00874930       0.00352359      -0.01665887      -0.00030297
H       -0.68349114       1.76026766       1.44934491      -0.02801216      -0.00274872      -0.00155778       0.01454079      -0.05798680      -0.05123849
H        0.98299281       1.75210230       2.08192440       0.01506503      -0.02195345      -0.00868467      -0.01777918       0.01662756       0.03559214
H        0.36308430       3.18905261       1.24988930       0.02100989       0.00913190       0.00295564      -0.00185706      -0.01387976      -0.00054317
C        0.02492466       2.05542285      -1.23678906      -0.00818260      -0.01944391       0.01156546       0.01233850      -0.05227736       0.01514965
H        0.36241583       1.61642072      -2.17991181       0.00883437      -0.00103788       0.01930759      -0.01647636      -0.02829822      -0.00027527
H       -1.02971148       1.82205594      -1.12010028      -0.02104091      -0.00890842      -0.00411431       0.02648886      -0.07332766       0.04720012
H        0.16837154       3.14215425      -1.30482764      -0.00290080      -0.02469334       0.00353225       0.01714914      -0.03504338       0.01402760
16
Properties=species:S:1:pos:R:3:mp2_forces:R:3:forces:R:3 R1=CN R2=H R3=CH3 R4=CH3 lg=F nu=F rxn-id=1315 mp2_energy=-12213.396678726134 energy=-12213.087936342625 free_energy=-12213.396677069832 pbc="F F F"
C        1.01366331      -0.00526161       0.08368368      -0.01800504      -0.00009681      -0.04343175       1.36500906       0.02015822       0.26607201
C        0.83699870       1.51251227      -0.05418051       0.04355933      -0.02611303      -0.02468073       0.13954742      -0.00165215       0.01950143
H        1.87711595       1.82193619      -0.19577861       0.06946368       0.03941777      -0.01287618       0.06355661       0.32804072      -0.02212328
F       -1.04124708      -0.19909266      -0.24870347      -0.02729916       0.00153287       0.02666638      -0.66428079      -0.10016661      -0.10796930
F        2.48902761      -0.10727491       0.49767644      -0.01458346       0.05360987       0.08150548      -0.32752221       0.04343391      -0.02866376
H        0.58204378      -0.51031478       0.93498069       0.00671306      -0.00242338      -0.05232329      -0.32402252       0.12980995      -0.30209116
C        1.06092686      -0.77239511      -1.15726868       0.00084699      -0.00753097       0.01533507      -0.23924941       0.06465681       0.04403752
N        1.31291510      -1.34818934      -2.15084819      -0.04423096       0.02797563      -0.00444985      -0.10574298      -0.00189228       0.01689874
C        0.34128539       2.09136682       1.26656471      -0.00123727      -0.01671813      -0.00874930       0.01736619      -0.02912410       0.00044429
H       -0.68118694       1.75360983       1.44345725      -0.02801216      -0.00274872      -0.00155778       0.02817115      -0.09554455      -0.08365370
H        0.98137359       1.75433483       2.08663902       0.01506503      -0.02195345      -0.00868467      -0.02659537       0.02601763       0.06284856
H        0.36311328       3.18733491       1.24929352       0.02100989       0.00913190       0.00295564      -0.00440741      -0.02591516      -0.00501530
C        0.02697306       2.04833446      -1.23468926      -0.00818260      -0.01944391       0.01156546       0.02930870      -0.09116117       0.02899722
H        0.36202210       1.61284694      -2.17995885       0.00883437      -0.00103788       0.01930759      -0.01424230      -0.05148091       0.00055544
H       -1.02622498       1.81012721      -1.11496239      -0.02104091      -0.00890842      -0.00411431       0.04757125      -0.14555639       0.07880752
H        0.16874511       3.13675655      -1.30189677      -0.00290080      -0.02469334       0.00353225       0.01553261      -0.06962390       0.03135378
16
Properties=species:S:1:pos:R:3:mp2_forces:R:3:forces:R:3 R1=CN R2=H R3=CH3 R4=CH3 lg=F nu=F rxn-id=1315 mp2_energy=-12213.396678726134 energy=-12213.321972594204 free_energy=-12213.396677069832 pbc="F F F"
C        1.10812935       0.01089331       0.09394132      -0.01800504      -0.00009681      -0.04343175       0.30096146       0.05206730       0.02721517
C        0.87704108       1.52459160      -0.05195288       0.04355933      -0.02611303      -0.02468073       0.12623180       0.04008560       0.00526713
H        1.90208040       1.88556940      -0.19832180       0.06946368       0.03941777      -0.01287618       0.07838438       0.20638843      -0.00343923
F       -1.14119949      -0.20379013      -0.25083688      -0.02729916       0.00153287       0.02666638      -0.31874008      -0.03903532       0.01911589
F        2.48884876      -0.11484225       0.52123202      -0.01458346       0.05360987       0.08150548      -0.00038481      -0.01986416       0.07400080
H        0.53039886      -0.47174013       0.87197987       0.00671306      -0.00242338      -0.05232329      -0.17157222       0.12423391      -0.21137083
C        1.05192506      -0.75077700      -1.15640164       0.00084699      -0.00753097       0.01533507      -0.02179573       0.06406205      -0.00376416
N        1.27455456      -1.34201669      -2.14820257      -0.04423096       0.02797563      -0.00444985      -0.11692452       0.00585273       0.01065615
C        0.35100317       2.08619951       1.26582724      -0.00123727      -0.01671813      -0.00874930       0.02774700      -0.01784309      -0.00285943
H       -0.66761060       1.72334960       1.41413780      -0.02801216      -0.00274872      -0.00155778       0.03953385      -0.09693007      -0.09336339
H        0.97760834       1.76008689       2.10126968       0.01506503      -0.02195345      -0.00868467      -0.01408088       0.01428153       0.04430024
H        0.35480122       3.18214189       1.25081132       0.02100989       0.00913190       0.00295564      -0.02777751      -0.01736534       0.00736288
C        0.03864866       2.02812219      -1.22744649      -0.00818260      -0.01944391       0.01156546       0.03843946      -0.05697310       0.02130258
H        0.36905167       1.59691767      -2.17636734       0.00883437      -0.00103788       0.01930759       0.01829778      -0.05017511       0.01049577
H       -1.00377509       1.75285932      -1.08838214      -0.02104091      -0.00890842      -0.00411431       0.06858787      -0.15937179       0.08815633
H        0.15603887       3.11906642      -1.29727894      -0.00290080      -0.02469334       0.00353225      -0.02690785      -0.04941356       0.00692411
16
Properties=species:S:1:pos:R:3:mp2_forces:R:3:forces:R:3 R1=CN R2=H R3=CH3 R4=CH3 lg=F nu=F rxn-id=1315 mp2_energy=-12213.396678726134 energy=-12213.443577093673 free_energy=-12213.396677069832 pbc="F F F"