17
Properties=species:S:1:pos:R:3:mp2_forces:R:3:forces:R:3 R1=H R2=CH3 R3=NH2 R4=CH3 lg=Cl nu=F rxn-id=702 mp2_energy=-21007.551700973312 energy=-21007.551697581195 free_energy=-21007.551697581195 pbc="F F F"
C        0.68718898      -0.07272299       0.04523752      -0.01356376      -0.04025206      -0.06949334      -0.01355482      -0.04035302      -0.06958076
C        0.81995174       1.44022758      -0.20149150       0.01515184      -0.01670376      -0.03594681       0.01518125      -0.01674477      -0.03593685
H        1.55398379       1.51712258      -1.02199328       0.03808959       0.04734720      -0.05442415       0.03807988       0.04735674      -0.05442880
Cl      -0.33357550      -0.83354374      -1.26852854       0.05025343       0.00534555      -0.01003593       0.05027478       0.00539685      -0.00998701
F        3.17936459       0.22351694       1.24972548      -0.03495722      -0.04267836      -0.00087554      -0.03494130      -0.04267661      -0.00086575
H        1.68709803      -0.48907352      -0.06028677       0.00548427       0.03306801       0.07428923       0.00544009       0.03309814       0.07429450
C        0.18080071      -0.48255166       1.40965941       0.02309469      -0.00431049       0.00445211       0.02312509      -0.00429496       0.00443927
H        0.98284953      -0.20767279       2.08999864       0.02962506       0.04188458       0.06811508       0.02961277       0.04187702       0.06813618
H       -0.75694703      -0.00634355       1.70371028      -0.01021213       0.04681623      -0.07460641      -0.01021688       0.04681978      -0.07460421
H        0.06650051      -1.56880852       1.44594709      -0.07485664      -0.02481842      -0.03389733      -0.07486479      -0.02481382      -0.03389400
N        1.31190758       2.02687718       1.04012357       0.02233777       0.01455297       0.01341430       0.02235014       0.01454875       0.01344185
H        1.61985812       2.97042669       0.82553563       0.02728225       0.03396447      -0.03057541       0.02727891       0.03397189      -0.03058395
H        2.16465355       1.45204104       1.26918204       0.03005212      -0.01892656       0.03155302       0.03003279      -0.01892032       0.03154690
C       -0.44286075       2.16361761      -0.65623745      -0.03053830      -0.01796522       0.01499117      -0.03055552      -0.01794614       0.01499072
H       -0.71704886       1.90401587      -1.68061114      -0.04004057      -0.04249716       0.01088571      -0.04004353      -0.04250531       0.01087711
H       -1.28787836       1.94738960       0.00050293      -0.00533839      -0.01274592       0.07261864      -0.00533317      -0.01274709       0.07262233
H       -0.25444328       3.24232005      -0.62176247      -0.03186400      -0.00208107       0.01953567      -0.03186570      -0.00206715       0.01953248
17
Properties=species:S:1:pos:R:3:mp2_forces:R:3:forces:R:3 R1=H R2=CH3 R3=NH2 R4=CH3 lg=Cl nu=F rxn-id=702 mp2_energy=-21007.551700973312 energy=-21007.58426577199 free_energy=-21007.551697581195 pbc="F F F"
C        0.70201713      -0.06800092       0.03768761      -0.01356376      -0.04025206      -0.06949334       0.00984423       0.00291909       0.00230525
C        0.83831221       1.44693705      -0.20205120       0.01515184      -0.01670376      -0.03594681      -0.01171609      -0.00142467      -0.00944183
H        1.56774485       1.53955509      -1.02588708       0.03808959       0.04734720      -0.05442415      -0.03753376      -0.00171168      -0.03355934
Cl      -0.31587424      -0.83612471      -1.27312983       0.05025343       0.00534555      -0.01003593       0.09319506      -0.02712250      -0.04013684
F        3.14726630       0.16834762       1.21892677      -0.03495722      -0.04267836      -0.00087554       0.03441651      -0.00129893       0.02677763
H        1.70389761      -0.48159712      -0.04959294       0.00548427       0.03306801       0.07428923       0.03158552       0.03467322       0.05708909
C        0.16972713      -0.47236532       1.39343968       0.02309469      -0.00431049       0.00445211      -0.02260026       0.00894279      -0.00741612
H        0.91930826      -0.14033799       2.10871178       0.02962506       0.04188458       0.06811508      -0.01795615      -0.01091452      -0.00133576
H       -0.80527132      -0.03474725       1.61924761      -0.01021213       0.04681623      -0.07460641      -0.01135905       0.03541817      -0.00782987
H        0.09941395      -1.56244442       1.44650311      -0.07485664      -0.02481842      -0.03389733      -0.05079702       0.01019506      -0.00928755
N        1.33463949       2.03484246       1.04036839       0.02233777       0.01455297       0.01341430       0.02195888      -0.01180947      -0.01905669
H        1.62566887       2.98595826       0.83241317       0.02728225       0.03396447      -0.03057541       0.04028238      -0.01810550      -0.01982303
H        2.18604154       1.45866012       1.26851656       0.03005212      -0.01892656       0.03155302       0.01513637      -0.02915852      -0.02309506
C       -0.44148450       2.15252255      -0.63297179      -0.03053830      -0.01796522       0.01499117      -0.02216209      -0.00002990       0.01824224
H       -0.75876305       1.83821569      -1.62860430      -0.04004057      -0.04249716       0.01088571      -0.03867840       0.00594468       0.02074562
H       -1.25072199       1.96459633       0.07578052      -0.00533839      -0.01274592       0.07261864      -0.01411536       0.00372540       0.02845220
H       -0.26051891       3.23282095      -0.66064662      -0.03186400      -0.00208107       0.01953567      -0.01950078      -0.00024271       0.01737007
17
Properties=species:S:1:pos:R:3:mp2_forces:R:3:forces:R:3 R1=H R2=CH3 R3=NH2 R4=CH3 lg=Cl nu=F rxn-id=702 mp2_energy=-21007.551700973312 energy=-21007.547236076745 free_energy=-21007.551697581195 pbc="F F F"
C        0.69236357      -0.07045048       0.03566999      -0.01356376      -0.04025206      -0.06949334       0.00049914       0.00179395       0.00325413
C        0.84835563       1.44828454      -0.19402224       0.01515184      -0.01670376      -0.03594681      -0.02643616      -0.00482138      -0.01360564
H        1.60020041       1.54016316      -0.99707575       0.03808959       0.04734720      -0.05442415      -0.05651381      -0.00927609      -0.04409251
Cl      -0.40033512      -0.81100237      -1.23735718       0.05025343       0.00534555      -0.01003593       0.11503203      -0.03754359      -0.05733441
F        3.11614290       0.17037383       1.20030935      -0.03495722      -0.04267836      -0.00087554       0.07048902       0.01574931       0.04358725
H        1.67459140      -0.51278831      -0.10109770       0.00548427       0.03306801       0.07428923       0.04035898       0.05006867       0.08686423
C        0.19034975      -0.48124882       1.40034666       0.02309469      -0.00431049       0.00445211      -0.02712874       0.00877725      -0.00416906
H        0.93630150      -0.13096702       2.10943149       0.02962506       0.04188458       0.06811508      -0.00046964      -0.01603981      -0.01699682
H       -0.79520626      -0.06910778       1.62792159      -0.01021213       0.04681623      -0.07460641      -0.00810777       0.04320922       0.01935109
H        0.14704518      -1.57263220       1.45445683      -0.07485664      -0.02481842      -0.03389733      -0.05904617       0.00942955      -0.00455423
N        1.31558366       2.04556399       1.05637680       0.02233777       0.01455297       0.01341430       0.01896077      -0.03116443      -0.02109491
H        1.59027052       3.00224765       0.84900049       0.02728225       0.03396447      -0.03057541       0.04386853      -0.03725844      -0.01027859
H        2.17293379       1.48450541       1.28871537       0.03005212      -0.01892656       0.03155302       0.01278588      -0.05907801      -0.03503286
C       -0.42178842       2.15338544      -0.64963603      -0.03053830      -0.01796522       0.01499117      -0.03112729       0.00951236       0.01295851
H       -0.72420914       1.83432036      -1.64772817      -0.04004057      -0.04249716       0.01088571      -0.04394239       0.02801293       0.00934081
H       -1.23856704       1.96239265       0.04965565      -0.00533839      -0.01274592       0.07261864      -0.03272123       0.02069552       0.01397419
H       -0.24262897       3.23379832      -0.67625571      -0.03186400      -0.00208107       0.01953567      -0.01650116       0.00793297       0.01782881
17
Properties=species:S:1:pos:R:3:mp2_forces:R:3:forces:R:3 R1=H R2=CH3 R3=NH2 R4=CH3 lg=Cl nu=F rxn-id=702 mp2_energy=-21007.551700973312 energy=-21007.49299997211 free_energy=-21007.551697581195 pbc="F F F"
C        0.69141357      -0.07151673       0.03364743      -0.01356376      -0.04025206      -0.06949334      -0.02866809      -0.00089042      -0.00092008
C        0.86490954       1.45166280      -0.18507004       0.01515184      -0.01670376      -0.03594681      -0.04926722      -0.01206467      -0.02124640
H        1.63675029       1.54643336      -0.96785597       0.03808959       0.04734720      -0.05442415      -0.07693725      -0.02831394      -0.05339010
Cl      -0.47883192      -0.78599956      -1.19767574       0.05025343       0.00534555      -0.01003593       0.13564478      -0.03246111      -0.07474965
F        3.06898372       0.15995452       1.17380605      -0.03495722      -0.04267836      -0.00087554       0.14790322       0.04629603       0.07711584
H        1.64711640      -0.54560766      -0.15998939       0.00548427       0.03306801       0.07428923       0.05240661       0.07454380       0.14630190
C        0.20990025      -0.48766766       1.40390893       0.02309469      -0.00431049       0.00445211      -0.03883705       0.00879283      -0.00361990
H        0.93930394      -0.12149243       2.12058094       0.02962506       0.04188458       0.06811508       0.03197620      -0.00898516      -0.06093278
H       -0.78802071      -0.09871379       1.61756530      -0.01021213       0.04681623      -0.07460641      -0.01406886       0.04043394       0.06429147
H        0.18814291      -1.57953357       1.45764745      -0.07485664      -0.02481842      -0.03389733      -0.05898443       0.00845398       0.00324351
N        1.30198193       2.06588357       1.07050933       0.02233777       0.01455297       0.01341430       0.01023477      -0.06679626      -0.02285847
H        1.56176354       3.02619742       0.85624390       0.02728225       0.03396447      -0.03057541       0.03926193      -0.07122652       0.00478846
H        2.16277447       1.52231661       1.31254287       0.03005212      -0.01892656       0.03155302       0.00778057      -0.11127215      -0.05641627
C       -0.40136054       2.14800671      -0.65960186      -0.03053830      -0.01796522       0.01499117      -0.04132642       0.02541568       0.00142649
H       -0.69349659       1.81783354      -1.65625181      -0.04004057      -0.04249716       0.01088571      -0.05244629       0.06077256      -0.00977170
H       -1.21876334       1.94968962       0.03705475      -0.00533839      -0.01274592       0.07261864      -0.05221486       0.04466160      -0.00622174
H       -0.23116410       3.22939162      -0.68835070      -0.03186400      -0.00208107       0.01953567      -0.01245761       0.02263981       0.01295944
17
Properties=species:S:1:pos:R:3:mp2_forces:R:3:forces:R:3 R1=H R2=CH3 R3=NH2 R4=CH3 lg=Cl nu=F rxn-id=702 mp2_energy=-21007.551700973312 energy=-21007.380700875063 free_energy=-21007.551697581195 pbc="F F F"
C        0.70617457      -0.07102109       0.03497862      -0.01356376      -0.04025206      -0.06949334      -0.14357525      -0.02469254      -0.05748326
C        0.89064608       1.45811264      -0.17291392       0.01515184      -0.01670376      -0.03594681      -0.08896549      -0.03088563      -0.03993193
H        1.67818597       1.56132014      -0.93759205       0.03808959       0.04734720      -0.05442415      -0.09155772      -0.06718487      -0.05242103
Cl      -0.55259327      -0.76880659      -1.15605562       0.05025343       0.00534555      -0.01003593       0.18382705       0.04574646      -0.03027034
F        2.99156532       0.13543541       1.12594537      -0.03495722      -0.04267836      -0.00087554       0.32880601       0.08732476       0.15016202
H        1.61877940      -0.58472469      -0.23773446       0.00548427       0.03306801       0.07428923       0.08238852       0.13364308       0.27136519
C        0.23092160      -0.49289817       1.40691281       0.02309469      -0.00431049       0.00445211      -0.06931221       0.00672928      -0.02198893
H        0.92119264      -0.11600444       2.15489569       0.02962506       0.04188458       0.06811508       0.08952241       0.01994138      -0.17026447
H       -0.78094703      -0.12265974       1.58410484      -0.01021213       0.04681623      -0.07460641      -0.04621171       0.01237954       0.12794307
H        0.22190910      -1.58461900       1.45693671      -0.07485664      -0.02481842      -0.03389733      -0.04991408       0.00431788       0.01782790
N        1.29539916       2.10076557       1.08413984       0.02233777       0.01455297       0.01341430      -0.01308386      -0.13173117      -0.02810880
H        1.53917570       3.06380070       0.85623858       0.02728225       0.03396447      -0.03057541       0.01550790      -0.13292665       0.01166373
H        2.15806653       1.58118022       1.34248449       0.03005212      -0.01892656       0.03155302      -0.00406052      -0.19714052      -0.09340688
C       -0.37874290       2.13521191      -0.66156224      -0.03053830      -0.01796522       0.01499117      -0.05284842       0.05220840      -0.02032695
H       -0.66340951       1.78603084      -1.65268343      -0.04004057      -0.04249716       0.01088571      -0.06479080       0.10389721      -0.03875484
H       -1.19200970       1.92779621       0.03754440      -0.00533839      -0.01274592       0.07261864      -0.06173254       0.07012789      -0.02531651
H       -0.22291031       3.21791845      -0.69692820      -0.03186400      -0.00208107       0.01953567      -0.01399927       0.04824551      -0.00068796
17
Properties=species:S:1:pos:R:3:mp2_forces:R:3:forces:R:3 R1=H R2=CH3 R3=NH2 R4=CH3 lg=Cl nu=F rxn-id=702 mp2_energy=-21007.551700973312 energy=-21007.20915190036 free_energy=-21007.551697581195 pbc="F F F"
C        0.74280119      -0.06467954       0.04986741      -0.01356376      -0.04025206      -0.06949334      -0.48973125      -0.13415646      -0.30538117
C        0.91334199       1.46602149      -0.16258504       0.01515184      -0.01670376      -0.03594681      -0.12873731      -0.05938485      -0.06917805
H        1.70179924       1.57851344      -0.92376435       0.03808959       0.04734720      -0.05442415      -0.07760668      -0.09271941      -0.02992992
Cl      -0.60104790      -0.78022430      -1.14744084       0.05025343       0.00534555      -0.01003593       0.35825396       0.24058868       0.21128007
F        2.90711252       0.11300358       1.08674289      -0.03495722      -0.04267836      -0.00087554       0.55178816       0.10424631       0.23596883
H        1.59714745      -0.61915793      -0.30799654       0.00548427       0.03306801       0.07428923       0.13781826       0.20350264       0.38853119
C        0.24923192      -0.49484785       1.41287398       0.02309469      -0.00431049       0.00445211      -0.10427623      -0.00050738      -0.06818775
H        0.89838046      -0.12068811       2.19889965       0.02962506       0.04188458       0.06811508       0.13006162       0.04563266      -0.28120596
H       -0.76891216      -0.12694879       1.55154932      -0.01021213       0.04681623      -0.07460641      -0.09073941      -0.02651603       0.16152791
H        0.23618105      -1.58593258       1.45287843      -0.07485664      -0.02481842      -0.03389733      -0.03964434      -0.00813288       0.03666930
N        1.29824377       2.13433895       1.09165612       0.02233777       0.01455297       0.01341430      -0.04236782      -0.18109805      -0.03462522
H        1.53457292       3.09778047       0.85396747       0.02728225       0.03396447      -0.03057541      -0.01443714      -0.17186315      -0.00655730
H        2.15864239       1.63153046       1.36661915       0.03005212      -0.01892656       0.03155302      -0.01122853      -0.24712431      -0.11432845
C       -0.36494879       2.12210852      -0.65687736      -0.03053830      -0.01796522       0.01499117      -0.05343540       0.07629729      -0.03661102
H       -0.64611628       1.75984213      -1.64347493      -0.04004057      -0.04249716       0.01088571      -0.05919180       0.11530905      -0.05244434
H       -1.17640614       1.91040070       0.04302623      -0.00533839      -0.01274592       0.07261864      -0.04323642       0.06976593      -0.02173324
H       -0.21862029       3.20577773      -0.69723016      -0.03186400      -0.00208107       0.01953567      -0.02328966       0.06615996      -0.01379488
17
Properties=species:S:1:pos:R:3:mp2_forces:R:3:forces:R:3 R1=H R2=CH3 R3=NH2 R4=CH3 lg=Cl nu=F rxn-id=702 mp2_energy=-21007.551700973312 energy=-21006.98887241637 free_energy=-21007.551697581195 pbc="F F F"
C        0.80311520      -0.04816962       0.08752382      -0.01356376      -0.04025206      -0.06949334      -0.80929040      -0.22074692      -0.53590451
C        0.92915268       1.47334993      -0.15401108       0.01515184      -0.01670376      -0.03594681      -0.11743888      -0.06093577      -0.07021396
H        1.71150835       1.58989541      -0.91988070       0.03808959       0.04734720      -0.05442415      -0.04533815      -0.07517266      -0.00526773
Cl      -0.64591320      -0.80956370      -1.17299105       0.05025343       0.00534555      -0.01003593       0.47588609       0.33052637       0.39590308
F        2.83907552       0.10012621       1.05735817      -0.03495722      -0.04267836      -0.00087554       0.58367316       0.08893294       0.24884737
H        1.57982300      -0.64429101      -0.35619294       0.00548427       0.03306801       0.07428923       0.17617546       0.17861609       0.34148706
C        0.26231184      -0.49488002       1.42144350       0.02309469      -0.00431049       0.00445211      -0.09289987      -0.00422578      -0.07359846
H        0.88245577      -0.12612298       2.23366853       0.02962506       0.04188458       0.06811508       0.11339232       0.04284984      -0.24802531
H       -0.75761785      -0.12423500       1.53183526      -0.01021213       0.04681623      -0.07460641      -0.08756428      -0.03542060       0.13203374
H        0.24181280      -1.58504976       1.44857506      -0.07485664      -0.02481842      -0.03389733      -0.02255101      -0.01320425       0.03830833
N        1.30321412       2.15648069       1.09608306       0.02233777       0.01455297       0.01341430      -0.04665974      -0.15286341      -0.02711462
H        1.53598937       3.11893892       0.85508629       0.02728225       0.03396447      -0.03057541      -0.02061103      -0.13296930      -0.01586809
H        2.15976228       1.66193609       1.38085005       0.03005212      -0.01892656       0.03155302      -0.00135827      -0.20202782      -0.08743599
C       -0.35820310       2.11283064      -0.65266704      -0.03053830      -0.01796522       0.01499117      -0.03491452       0.07354362      -0.03121175
H       -0.63848881       1.74583218      -1.63737719      -0.04004057      -0.04249716       0.01088571      -0.03219405       0.08163567      -0.03829264
H       -1.17115134       1.90202307       0.04519018      -0.00533839      -0.01274592       0.07261864      -0.01752833       0.04596640      -0.00968297
H       -0.21544328       3.19773733      -0.69578248      -0.03186400      -0.00208107       0.01953567      -0.02077849       0.05549559      -0.01396354
17
Properties=species:S:1:pos:R:3:mp2_forces:R:3:forces:R:3 R1=H R2=CH3 R3=NH2 R4=CH3 lg=Cl nu=F rxn-id=702 mp2_energy=-21007.551700973312 energy=-21006.82654450509 free_energy=-21007.551697581195 pbc="F F F"
C        0.87159009      -0.02945840       0.13297057      -0.01356376      -0.04025206      -0.06949334      -0.47841015      -0.11017102      -0.30478785
C        0.93908761       1.47848352      -0.14805139       0.01515184      -0.01670376      -0.03594681      -0.04890967      -0.02440757      -0.02875296
H        1.71543731       1.59624487      -0.91928738       0.03808959       0.04734720      -0.05442415      -0.01368795      -0.03054683       0.00319635
Cl      -0.68671319      -0.83734216      -1.20615127       0.05025343       0.00534555      -0.01003593       0.22823396       0.15644431       0.20573099
F        2.78958490       0.09257099       1.03603511      -0.03495722      -0.04267836      -0.00087554       0.29696874       0.04091169       0.12720984
H        1.56471310      -0.65948766      -0.38533948       0.00548427       0.03306801       0.07428923       0.10464394       0.06849417       0.13964136
C        0.27037306      -0.49461243       1.42776387       0.02309469      -0.00431049       0.00445211      -0.03805263      -0.00293087      -0.02586560
H        0.87292799      -0.12960444       2.25474979       0.02962506       0.04188458       0.06811508       0.04990254       0.02045941      -0.09999623
H       -0.75014028      -0.12162500       1.52074434      -0.01021213       0.04681623      -0.07460641      -0.03736767      -0.01905313       0.05688895
H        0.24424419      -1.58401572       1.44551652      -0.07485664      -0.02481842      -0.03389733      -0.00374752      -0.00687770       0.01773530
N        1.30695732       2.16938123       1.09847359       0.02233777       0.01455297       0.01341430      -0.02065590      -0.06392210      -0.00950328
H        1.53745873       3.13013753       0.85666908       0.02728225       0.03396447      -0.03057541      -0.01125977      -0.05021184      -0.00630760
H        2.15971363       1.67899470       1.38835467       0.03005212      -0.01892656       0.03155302       0.00231018      -0.08621373      -0.03357986
C       -0.35514742       2.10669501      -0.65021481      -0.03053830      -0.01796522       0.01499117      -0.01090713       0.03490923      -0.01406050
H       -0.63552488       1.73906751      -1.63439922      -0.04004057      -0.04249716       0.01088571      -0.00805390       0.03126466      -0.01563198
H       -1.16971355       1.89829539       0.04564703      -0.00533839      -0.01274592       0.07261864      -0.00402257       0.01780423      -0.00511541
H       -0.21344525       3.19311345      -0.69476957      -0.03186400      -0.00208107       0.01953567      -0.00698450       0.02404707      -0.00680154
17
Properties=species:S:1:pos:R:3:mp2_forces:R:3:forces:R:3 R1=H R2=CH3 R3=NH2 R4=CH3 lg=Cl nu=F rxn-id=702 mp2_energy=-21007.551700973312 energy=-21006.81507234208 free_energy=-21007.551697581195 pbc="F F F"
C        0.94541128      -0.01249631       0.18003684      -0.01356376      -0.04025206      -0.06949334       0.42842296       0.08521616       0.26302860
C        0.94658465       1.48222523      -0.14358022       0.01515184      -0.01670376      -0.03594681       0.04087134       0.01688661       0.02457671
H        1.71772081       1.60093506      -0.91953373       0.03808959       0.04734720      -0.05442415       0.01301456       0.02563581      -0.00096048
Cl      -0.72284536      -0.86105386      -1.23719771       0.05025343       0.00534555      -0.01003593      -0.19397118      -0.12032386      -0.15934888
F        2.74365941       0.08621816       1.01596446      -0.03495722      -0.04267836      -0.00087554      -0.27564363      -0.03509290      -0.12292249
H        1.54817859      -0.67014078      -0.40725020       0.00548427       0.03306801       0.07428923      -0.10681277      -0.05066892      -0.11473231
C        0.27656820      -0.49430624       1.43194206       0.02309469      -0.00431049       0.00445211       0.03868167       0.00146351       0.02005959
H        0.86536164      -0.13249977       2.27031673       0.02962506       0.04188458       0.06811508      -0.04077728      -0.01477509       0.08401550
H       -0.74424238      -0.11939392       1.51211875      -0.01021213       0.04681623      -0.07460641       0.03562725       0.00914065      -0.04924423
H        0.24576622      -1.58311962       1.44312242      -0.07485664      -0.02481842      -0.03389733       0.01498589       0.00375988      -0.00943197
N        1.30978193       2.17907896       1.10012454       0.02233777       0.01455297       0.01341430       0.01198173       0.05037019       0.00901987
H        1.53869688       3.13780846       0.85806316       0.02728225       0.03396447      -0.03057541       0.00403416       0.03925322       0.01056618
H        2.15902305       1.69221658       1.39372370       0.03005212      -0.01892656       0.03155302      -0.00636789       0.07271075       0.03130239
C       -0.35327636       2.10146795      -0.64841361      -0.03053830      -0.01796522       0.01499117       0.01184922      -0.02955248       0.00824746
H       -0.63385916       1.73452158      -1.63247016      -0.04004057      -0.04249716       0.01088571       0.01137924      -0.02231473       0.00726614
H       -1.16918764       1.89583815       0.04577277      -0.00533839      -0.01274592       0.07261864       0.00166144      -0.01152550      -0.00348981
H       -0.21193843       3.18953875      -0.69402837      -0.03186400      -0.00208107       0.01953567       0.01106330      -0.02018330       0.00204774
17
Properties=species:S:1:pos:R:3:mp2_forces:R:3:forces:R:3 R1=H R2=CH3 R3=NH2 R4=CH3 lg=Cl nu=F rxn-id=702 mp2_energy=-21007.551700973312 energy=-21007.005593513164 free_energy=-21007.551697581195 pbc="F F F"
C        1.02335901       0.00081040       0.22608319      -0.01356376      -0.04025206      -0.06949334       1.45675931       0.24836910       0.86046985
C        0.95366838       1.48454826      -0.13940092       0.01515184      -0.01670376      -0.03594681       0.13209216       0.04307109       0.07825584
H        1.71965096       1.60535877      -0.92019056       0.03808959       0.04734720      -0.05442415       0.03721174       0.08261026      -0.01069629
Cl      -0.75331086      -0.88099887      -1.26425554       0.05025343       0.00534555      -0.01003593      -0.57539223      -0.36970698      -0.50088493
F        2.69215729       0.08022422       0.99349412      -0.03495722      -0.04267836      -0.00087554      -0.96296473      -0.11223821      -0.42271918
H        1.52771397      -0.67724007      -0.42518506       0.00548427       0.03306801       0.07428923      -0.38475000      -0.13314003      -0.33721796
C        0.28332143      -0.49374504       1.43447286       0.02309469      -0.00431049       0.00445211       0.12830086       0.00948963       0.04839621
H        0.85816425      -0.13544752       2.28421967       0.02962506       0.04188458       0.06811508      -0.13357146      -0.05334801       0.26056009
H       -0.73780584      -0.11676215       1.50296738      -0.01021213       0.04681623      -0.07460641       0.12106883       0.04459352      -0.17012247
H        0.24740089      -1.58229516       1.44136512      -0.07485664      -0.02481842      -0.03389733       0.03659629       0.01428247      -0.03050523
N        1.31205956       2.18757720       1.10125806       0.02233777       0.01455297       0.01341430       0.03993603       0.15829729       0.02216445
H        1.54005426       3.14425612       0.85943495       0.02728225       0.03396447      -0.03057541       0.02196794       0.11956248       0.02849264
H        2.15821526       1.70495740       1.39898969       0.03005212      -0.01892656       0.03155302      -0.01703235       0.23735471       0.09980872
C       -0.35137225       2.09585907      -0.64644847      -0.03053830      -0.01796522       0.01499117       0.03676742      -0.10374302       0.03436852
H       -0.63246345       1.73052228      -1.63070642      -0.04004057      -0.04249716       0.01088571       0.02881862      -0.07294180       0.02976654
H       -1.16890711       1.89355942       0.04594782      -0.00533839      -0.01274592       0.07261864       0.00462618      -0.04077232      -0.00109765
H       -0.21050242       3.18565405      -0.69333443      -0.03186400      -0.00208107       0.01953567       0.02956539      -0.07174016       0.01096083
17
Properties=species:S:1:pos:R:3:mp2_forces:R:3:forces:R:3 R1=H R2=CH3 R3=NH2 R4=CH3 lg=Cl nu=F rxn-id=702 mp2_energy=-21007.551700973312 energy=-21007.362739653483 free_energy=-21007.551697581195 pbc="F F F"
C        1.10189589       0.01086284       0.26909293      -0.01356376      -0.04025206      -0.06949334       1.80801792       0.23352406       0.99272409
C        0.96287259       1.48619276      -0.13399215       0.01515184      -0.01670376      -0.03594681       0.21324636       0.03434130       0.12471587
H        1.72254826       1.61119890      -0.92095742       0.03808959       0.04734720      -0.05442415       0.06776584       0.13480837      -0.01592190
Cl      -0.78617464      -0.90318467      -1.29393288       0.05025343       0.00534555      -0.01003593      -0.76343202      -0.50808573      -0.67901161
F        2.63754094       0.07445848       0.97028932      -0.03495722      -0.04267836      -0.00087554      -1.25888120      -0.13333921      -0.53766132
H        1.50052597      -0.68111874      -0.44201469       0.00548427       0.03306801       0.07428923      -0.62780630      -0.09128574      -0.39110266
C        0.29294269      -0.49265550       1.43700853       0.02309469      -0.00431049       0.00445211       0.22510031       0.02332078       0.05867815