17
Properties=species:S:1:pos:R:3:mp2_forces:R:3:forces:R:3 R1=H R2=CH3 R3=CH3 R4=NH2 lg=F nu=Br rxn-id=662 mp2_energy=-78511.85006806512 energy=-78511.85006946909 free_energy=-78511.85006946909 pbc="F F F"
C        0.70856968       0.03631995       0.07880868       0.04638473      -0.01244761      -0.02659224       0.04631199      -0.01252978      -0.02657711
C        0.87298357       1.54278941       0.12448296       0.01631014       0.02626127      -0.01105577       0.01631245       0.02624794      -0.01105846
H        1.95373673       1.68970603       0.21916157       0.01855099       0.03175221       0.00630631       0.01855803       0.03175277       0.00630809
F       -0.65387826      -0.24542131      -0.23368894       0.02893480      -0.02169834       0.05734982       0.02897765      -0.02164595       0.05734508
Br       4.30463792      -0.36362933      -0.26844889       0.01509260       0.02241179       0.04814080       0.01509247       0.02241186       0.04814028
H        1.30810531      -0.33855252      -0.74882803      -0.00386038      -0.00722366      -0.04996601      -0.00385741      -0.00721213      -0.04996198
C        1.07046636      -0.67523974       1.36120793      -0.01765898       0.01008639      -0.02026557      -0.01764115       0.01009683      -0.02028009
H        1.22379895      -1.73909606       1.17343552      -0.06854275       0.00702072       0.00155315      -0.06854726       0.00702707       0.00155299
H        2.01690969      -0.28364939       1.73512040      -0.00504169      -0.03502588      -0.02109896      -0.00503421      -0.03502804      -0.02108762
H        0.27612371      -0.54904709       2.10186524       0.01126169       0.03187445       0.02269516       0.01125776       0.03187873       0.02269259
C        0.14922179       2.18944883       1.30938791       0.00075412      -0.00623082      -0.00452596       0.00075101      -0.00622018      -0.00451661
H       -0.91687719       1.94234053       1.30164669       0.00844721      -0.03108075      -0.05796570       0.00845082      -0.03108637      -0.05797304
H        0.56948296       1.87306366       2.26789804       0.00856927      -0.01219864      -0.01048226       0.00856940      -0.01220131      -0.01048568
H        0.24341804       3.27910408       1.25254959       0.00928804      -0.00473958       0.00883245       0.00928750      -0.00474025       0.00883037
N        0.46338727       2.07693644      -1.17837241      -0.05201747      -0.02203366       0.00203756      -0.05201157      -0.02202526       0.00200717
H        0.42044880       3.08811053      -1.13443803       0.03380918       0.01518608      -0.00894226       0.03379275       0.01519655      -0.00892159
H       -0.46907080       1.73937187      -1.38480903      -0.05028141       0.00808602       0.06397950      -0.05027018       0.00807751       0.06398559
17
Properties=species:S:1:pos:R:3:mp2_forces:R:3:forces:R:3 R1=H R2=CH3 R3=CH3 R4=NH2 lg=F nu=Br rxn-id=662 mp2_energy=-78511.85006806512 energy=-78511.88472046074 free_energy=-78511.85006946909 pbc="F F F"
C        0.72534927       0.02818352       0.07483974       0.04638473      -0.01244761      -0.02659224      -0.00123506      -0.00357779       0.00017508
C        0.89413709       1.53517119       0.11730224       0.01631014       0.02626127      -0.01105577      -0.00549718      -0.00300099      -0.00062198
H        1.97464083       1.69441571       0.19444953       0.01855099       0.03175221       0.00630631      -0.00601460       0.00085263      -0.00098871
F       -0.63822906      -0.24524649      -0.24998406       0.02893480      -0.02169834       0.05734982      -0.00028917      -0.00805371       0.00273615
Br       4.31098146      -0.24321972      -0.30098682       0.01509260       0.02241179       0.04814080       0.02606477       0.01921646       0.01506124
H        1.33007817      -0.35730033      -0.74463893      -0.00386038      -0.00722366      -0.04996601      -0.00078495      -0.00189586      -0.00055242
C        1.03718586      -0.68193723       1.36975894      -0.01765898       0.01008639      -0.02026557       0.00364635      -0.00224987      -0.00110799
H        1.16269783      -1.75160477       1.19455095      -0.06854275       0.00702072       0.00155315      -0.04209528      -0.01039788       0.00403315
H        1.97367969      -0.30706094       1.78257188      -0.00504169      -0.03502588      -0.02109896       0.03079302      -0.03134394      -0.03106433
H        0.21854443      -0.53230446       2.07843847       0.01126169       0.03187445       0.02269516       0.02601284       0.03399496       0.01948606
C        0.17774831       2.17877281       1.30742803       0.00075412      -0.00623082      -0.00452596      -0.00745047      -0.00245928      -0.00199693
H       -0.88113760       1.90158784       1.30871248       0.00844721      -0.03108075      -0.05796570      -0.00921564       0.00361316      -0.00772700
H        0.61794550       1.88650574       2.26353955       0.00856927      -0.01219864      -0.01048226      -0.01397387      -0.00657978      -0.00023123
H        0.24274912       3.26938068       1.23274229       0.00928804      -0.00473958       0.00883245      -0.00106850      -0.00279634       0.00024833
N        0.45172190       2.05963753      -1.17781863      -0.05201747      -0.02203366       0.00203756      -0.00576322      -0.00389736      -0.00081432
H        0.44626225       3.07272262      -1.14560667       0.03380918       0.01518608      -0.00894226       0.02327529      -0.00316071      -0.00961775
H       -0.50289052       1.75485218      -1.32831980      -0.05028141       0.00808602       0.06397950      -0.01640432       0.02173631       0.01298267
17
Properties=species:S:1:pos:R:3:mp2_forces:R:3:forces:R:3 R1=H R2=CH3 R3=CH3 R4=NH2 lg=F nu=Br rxn-id=662 mp2_energy=-78511.85006806512 energy=-78511.8695797476 free_energy=-78511.85006946909 pbc="F F F"
C        0.72475366       0.03020040       0.07361740       0.04638473      -0.01244761      -0.02659224      -0.00075020      -0.00382609      -0.00038301
C        0.89959768       1.53643078       0.11557471       0.01631014       0.02626127      -0.01105577      -0.00779362      -0.00312677      -0.00039196
H        1.98105310       1.68998406       0.18969231       0.01855099       0.03175221       0.00630631      -0.00858620       0.00282660      -0.00009194
F       -0.64040003      -0.23758426      -0.25221691       0.02893480      -0.02169834       0.05734982       0.00087069      -0.01107936       0.00247899
Br       4.27642338      -0.25579633      -0.30760060       0.01509260       0.02241179       0.04814080       0.04082247       0.01252408       0.01354200
H        1.32737103      -0.35816861      -0.74575460      -0.00386038      -0.00722366      -0.04996601       0.00046015      -0.00064961      -0.00140660
C        1.03230841      -0.68084221       1.37058147      -0.01765898       0.01008639      -0.02026557       0.00468204      -0.00082038      -0.00134980
H        1.22664400      -1.73864687       1.18821664      -0.06854275       0.00702072       0.00155315      -0.04816243      -0.01350205       0.00503643
H        1.92898709      -0.26153112       1.82624735      -0.00504169      -0.03502588      -0.02109896       0.03849393      -0.03191677      -0.03559396
H        0.18096869      -0.58561014       2.04976830       0.01126169       0.03187445       0.02269516       0.02710059       0.04401887       0.02244583
C        0.19073737       2.18183997       1.30905217       0.00075412      -0.00623082      -0.00452596      -0.01052322      -0.00338824      -0.00170502
H       -0.86744246       1.90264995       1.31982839       0.00844721      -0.03108075      -0.05796570      -0.01347100       0.00668796      -0.01030927
H        0.63966524       1.89240047       2.26195188       0.00856927      -0.01219864      -0.01048226      -0.02023930      -0.01140210       0.00043376
H        0.25346582       3.27250234       1.23114171       0.00928804      -0.00473958       0.00883245       0.00016675      -0.00380804       0.00297617
N        0.45426333       2.06271197      -1.17791275      -0.05201747      -0.02203366       0.00203756      -0.00811528      -0.00463572      -0.00062277
H        0.42480910       3.07504216      -1.13713529       0.03380918       0.01518608      -0.00894226       0.02642609      -0.00304270      -0.01139428
H       -0.49174089       1.73697333      -1.33807297      -0.05028141       0.00808602       0.06397950      -0.02138148       0.02514033       0.01633542
17
Properties=species:S:1:pos:R:3:mp2_forces:R:3:forces:R:3 R1=H R2=CH3 R3=CH3 R4=NH2 lg=F nu=Br rxn-id=662 mp2_energy=-78511.85006806512 energy=-78511.85629650665 free_energy=-78511.85006946909 pbc="F F F"
C        0.72232669       0.03131429       0.07239916       0.04638473      -0.01244761      -0.02659224      -0.00071703      -0.00250941       0.00014098
C        0.90116860       1.53701150       0.11421275       0.01631014       0.02626127      -0.01105577      -0.00793970      -0.00196827      -0.00003408
H        1.98328350       1.68569744       0.18677933       0.01855099       0.03175221       0.00630631      -0.00888186       0.00619470      -0.00017577
F       -0.64490275      -0.23319219      -0.24935100       0.02893480      -0.02169834       0.05734982       0.00030134      -0.00873237       0.00506432
Br       4.24212820      -0.27441049      -0.29712808       0.01509260       0.02241179       0.04814080       0.06267065       0.00665658       0.00896920
H        1.32028583      -0.35790217      -0.74975845      -0.00386038      -0.00722366      -0.04996601      -0.00140465       0.00061830      -0.00224145
C        1.03456381      -0.68146904       1.36877978      -0.01765898       0.01008639      -0.02026557       0.00395124       0.00046948      -0.00117415
H        1.28609838      -1.72576992       1.17986564      -0.06854275       0.00702072       0.00155315      -0.05397247      -0.01375430       0.00489592
H        1.89833275      -0.22710344       1.85320470      -0.00504169      -0.03502588      -0.02109896       0.04012171      -0.03300849      -0.03588669
H        0.16361274      -0.63405295       2.02810515       0.01126169       0.03187445       0.02269516       0.02607913       0.04975628       0.02277112
C        0.19841450       2.18598057       1.30924260       0.00075412      -0.00623082      -0.00452596      -0.01225917      -0.00410497      -0.00135597
H       -0.86029507       1.90952910       1.32637305       0.00844721      -0.03108075      -0.05796570      -0.01532653       0.00624616      -0.01386224
H        0.65173228       1.89840982       2.26062262       0.00856927      -0.01219864      -0.01048226      -0.02474309      -0.01581570       0.00101781
H        0.26376115       3.27636403       1.22780421       0.00928804      -0.00473958       0.00883245      -0.00080129      -0.00439518       0.00670417
N        0.45511245       2.06598559      -1.17810772      -0.05201747      -0.02203366       0.00203756      -0.00997613      -0.00640551      -0.00063336
H        0.41135394       3.07750505      -1.13030128       0.03380918       0.01518608      -0.00894226       0.02793471      -0.00419083      -0.01552696
H       -0.48551246       1.72865870      -1.34576324      -0.05028141       0.00808602       0.06397950      -0.02503686       0.02494355       0.02132715
17
Properties=species:S:1:pos:R:3:mp2_forces:R:3:forces:R:3 R1=H R2=CH3 R3=CH3 R4=NH2 lg=F nu=Br rxn-id=662 mp2_energy=-78511.85006806512 energy=-78511.86505825925 free_energy=-78511.85006946909 pbc="F F F"
C        0.72293141       0.03162619       0.07361229       0.04638473      -0.01244761      -0.02659224       0.00072372      -0.00459227      -0.00091464
C        0.89997629       1.53755309       0.11536511       0.01631014       0.02626127      -0.01105577      -0.00747109      -0.00368808      -0.00059066
H        1.98170981       1.68980967       0.18869689       0.01855099       0.03175221       0.00630631      -0.00813969       0.00140955      -0.00060866
F       -0.64321756      -0.23375603      -0.25051502       0.02893480      -0.02169834       0.05734982       0.00237113      -0.01278310       0.00093726
Br       4.28052449      -0.26580407      -0.30809240       0.01509260       0.02241179       0.04814080       0.03212174       0.01314278       0.01486993
H        1.32318668      -0.35739676      -0.74714418      -0.00386038      -0.00722366      -0.04996601       0.00350428      -0.00086866      -0.00159756
C        1.03119258      -0.68066697       1.37014271      -0.01765898       0.01008639      -0.02026557       0.00602439      -0.00091053      -0.00088429
H        1.24664031      -1.73377932       1.18477087      -0.06854275       0.00702072       0.00155315      -0.04914853      -0.01393471       0.00619717
H        1.91528304      -0.24824452       1.83797278      -0.00504169      -0.03502588      -0.02109896       0.04151476      -0.03281972      -0.03681052
H        0.17145293      -0.60343812       2.04107677       0.01126169       0.03187445       0.02269516       0.02878560       0.04656834       0.02364554
C        0.19359207       2.18376160       1.30981771       0.00075412      -0.00623082      -0.00452596      -0.01077304      -0.00383938      -0.00210952
H       -0.86476718       1.90557896       1.32272472       0.00844721      -0.03108075      -0.05796570      -0.01426547       0.00696983      -0.01184458
H        0.64419278       1.89361673       2.26170176       0.00856927      -0.01219864      -0.01048226      -0.02200826      -0.01191716       0.00077666
H        0.25737986       3.27439895       1.23195590       0.00928804      -0.00473958       0.00883245       0.00064492      -0.00404073       0.00253726
N        0.45392963       2.06339283      -1.17806053      -0.05201747      -0.02203366       0.00203756      -0.00843200      -0.00402791      -0.00036772
H        0.41651374       3.07535224      -1.13579082       0.03380918       0.01518608      -0.00894226       0.02757948      -0.00158581      -0.01021072
H       -0.48905635       1.73055142      -1.34125537      -0.05028141       0.00808602       0.06397950      -0.02303192       0.02691755       0.01697506
17
Properties=species:S:1:pos:R:3:mp2_forces:R:3:forces:R:3 R1=H R2=CH3 R3=CH3 R4=NH2 lg=F nu=Br rxn-id=662 mp2_energy=-78511.85006806512 energy=-78511.83769681421 free_energy=-78511.85006946909 pbc="F F F"
C        0.73567269       0.04703977       0.07776072       0.04638473      -0.01244761      -0.02659224      -0.02533258      -0.01911304      -0.00605318
C        0.92791922       1.55201871       0.11128332       0.01631014       0.02626127      -0.01105577      -0.03865880      -0.01976829       0.00385119
H        2.00838272       1.71377311       0.17781777       0.01855099       0.03175221       0.00630631      -0.03345679      -0.05029848       0.00882915
F       -0.64663248      -0.18499281      -0.21861817       0.02893480      -0.02169834       0.05734982      -0.00544795      -0.06141832      -0.04156212
Br       4.18023759      -0.24972644      -0.27910979       0.01509260       0.02241179       0.04814080       0.13207521      -0.00617346      -0.00232709
H        1.30396654      -0.35464685      -0.75848811      -0.00386038      -0.00722366      -0.04996601       0.02154859      -0.00264644       0.01493506
C        1.03490837      -0.68216395       1.36840551      -0.01765898       0.01008639      -0.02026557      -0.00597164       0.00049382      -0.00175401
H        1.27201586      -1.72738382       1.16638744      -0.06854275       0.00702072       0.00155315      -0.04265537      -0.01092060       0.01027656
H        1.89508512      -0.24996099       1.87793249      -0.00504169      -0.03502588      -0.02109896       0.04059081      -0.00367402      -0.07088285
H        0.15188842      -0.63337307       2.01078968       0.01126169       0.03187445       0.02269516       0.03343797       0.03834415       0.05436134
C        0.21272276       2.18222061       1.30751744       0.00075412      -0.00623082      -0.00452596      -0.02017265       0.00509529       0.00433810
H       -0.83606775       1.87163158       1.31456133       0.00844721      -0.03108075      -0.05796570      -0.03411554       0.04641859       0.01944305
H        0.67104857       1.89122092       2.25552330       0.00856927      -0.01219864      -0.01048226      -0.02494226       0.00632762       0.00692791
H        0.24651907       3.27462428       1.24054007       0.00928804      -0.00473958       0.00883245       0.01667854       0.00443377      -0.00907266
N        0.46521768       2.06167030      -1.18334337      -0.05201747      -0.02203366       0.00203756      -0.01522589       0.00533704       0.00523003
H        0.37738989       3.07042997      -1.14498416       0.03380918       0.01518608      -0.00894226       0.03699290       0.01082426       0.01338895
H       -0.45880976       1.68017458      -1.34699627      -0.05028141       0.00808602       0.06397950      -0.03534456       0.05673811      -0.00992945
17
Properties=species:S:1:pos:R:3:mp2_forces:R:3:forces:R:3 R1=H R2=CH3 R3=CH3 R4=NH2 lg=F nu=Br rxn-id=662 mp2_energy=-78511.85006806512 energy=-78511.78588628217 free_energy=-78511.85006946909 pbc="F F F"
C        0.75295319       0.06108731       0.08178309       0.04638473      -0.01244761      -0.02659224      -0.05702850      -0.02995155      -0.00664268
C        0.95504743       1.56653700       0.10809735       0.01631014       0.02626127      -0.01105577      -0.07325665      -0.03555191       0.00789206
H        2.03225350       1.74869881       0.16883935       0.01855099       0.03175221       0.00630631      -0.05489072      -0.12691228       0.01449857
F       -0.64249356      -0.14127487      -0.19247026       0.02893480      -0.02169834       0.05734982      -0.01807456      -0.10661277      -0.07851054
Br       4.09547596      -0.25220879      -0.27889455       0.01509260       0.02241179       0.04814080       0.23269690      -0.02529563      -0.01831298
H        1.29053041      -0.35305528      -0.76747740      -0.00386038      -0.00722366      -0.04996601       0.05413173       0.00346690       0.03862578
C        1.03738979      -0.68131043       1.36994334      -0.01765898       0.01008639      -0.02026557      -0.01933300       0.00177764      -0.00036439
H        1.30470429      -1.71737597       1.15938956      -0.06854275       0.00702072       0.00155315      -0.03744603      -0.00388399       0.00558541
H        1.86257143      -0.24293575       1.92916288      -0.00504169      -0.03502588      -0.02109896       0.04563284       0.02418334      -0.10599478
H        0.12577332      -0.66275311       1.97218641       0.01126169       0.03187445       0.02269516       0.04000522       0.01733934       0.09899235
C        0.22765263       2.17853476       1.30512372       0.00075412      -0.00623082      -0.00452596      -0.03039082       0.01694316       0.01068782
H       -0.81066099       1.83660500       1.30133258       0.00844721      -0.03108075      -0.05796570      -0.05742071       0.08660070       0.05547408
H        0.68956959       1.88710673       2.25135799       0.00856927      -0.01219864      -0.01048226      -0.02480267       0.02159309       0.00868807
H        0.23307615       3.27158607       1.24840583       0.00928804      -0.00473958       0.00883245       0.02750826       0.01792830      -0.01421778
N        0.47393430       2.05849045      -1.18680175      -0.05201747      -0.02203366       0.00203756      -0.02279391       0.01939069       0.00798472
H        0.35016445       3.06347033      -1.15503982       0.03380918       0.01518608      -0.00894226       0.04480694       0.02841404       0.03032522
H       -0.43647736       1.64135364      -1.33795913      -0.05028141       0.00808602       0.06397950      -0.04934433       0.09057093      -0.05471092
17
Properties=species:S:1:pos:R:3:mp2_forces:R:3:forces:R:3 R1=H R2=CH3 R3=CH3 R4=NH2 lg=F nu=Br rxn-id=662 mp2_energy=-78511.85006806512 energy=-78511.67527042003 free_energy=-78511.85006946909 pbc="F F F"
C        0.77805980       0.07528538       0.08497835       0.04638473      -0.01244761      -0.02659224      -0.12826880      -0.04001886      -0.00430481
C        0.98972877       1.58294229       0.10420195       0.01631014       0.02626127      -0.01105577      -0.12307580      -0.05400577       0.01317109
H        2.05847221       1.80737817       0.16209990       0.01855099       0.03175221       0.00630631      -0.06993618      -0.27979585       0.00721039
F       -0.63615970      -0.08896493      -0.15520178       0.02893480      -0.02169834       0.05734982      -0.02495421      -0.15121794      -0.10920429
Br       3.98988177      -0.23489180      -0.27103342       0.01509260       0.02241179       0.04814080       0.41029838      -0.05751248      -0.04438970
H        1.26177556      -0.35546298      -0.78660953      -0.00386038      -0.00722366      -0.04996601       0.13463244       0.02796496       0.09406192
C        1.04390745      -0.68279868       1.36991625      -0.01765898       0.01008639      -0.02026557      -0.05419132       0.00552967       0.00484369
H        1.32568856      -1.71451267       1.15671319      -0.06854275       0.00702072       0.00155315      -0.03525274       0.01320646      -0.01538009
H        1.83393437      -0.25149304       1.98321466      -0.00504169      -0.03502588      -0.02109896       0.04614133       0.06927609      -0.17175398
H        0.10185672      -0.67633847       1.92185951       0.01126169       0.03187445       0.02269516       0.04355410      -0.04447129       0.19566880
C        0.24433157       2.17091361       1.30103700       0.00075412      -0.00623082      -0.00452596      -0.04266107       0.03984552       0.01786170
H       -0.78084545       1.79498823       1.28069723       0.00844721      -0.03108075      -0.05796570      -0.08744212       0.13621680       0.10025161
H        0.70777859       1.87903005       2.24670480       0.00856927      -0.01219864      -0.01048226      -0.02229709       0.03763517       0.00577268
H        0.22146489       3.26346708       1.25443910       0.00928804      -0.00473958       0.00883245       0.02652310       0.04381490      -0.00571047
N        0.48590455       2.04962364      -1.19087135      -0.05201747      -0.02203366       0.00203756      -0.04352538       0.03926699       0.00683776
H        0.32548675       3.04912243      -1.16899285       0.03380918       0.01518608      -0.00894226       0.04443099       0.06615961       0.03879734
H       -0.40980188       1.59426757      -1.31617383      -0.05028141       0.00808602       0.06397950      -0.07397564       0.14810602      -0.13373364
17
Properties=species:S:1:pos:R:3:mp2_forces:R:3:forces:R:3 R1=H R2=CH3 R3=CH3 R4=NH2 lg=F nu=Br rxn-id=662 mp2_energy=-78511.85006806512 energy=-78511.4660151136 free_energy=-78511.85006946909 pbc="F F F"
C        0.81549950       0.08607441       0.08443937       0.04638473      -0.01244761      -0.02659224      -0.43679488      -0.04806229       0.00172023
C        1.02575736       1.59905588       0.10043889       0.01631014       0.02626127      -0.01105577      -0.19974913      -0.09217680       0.01054608
H        2.07861666       1.88798348       0.15941076       0.01855099       0.03175221       0.00630631      -0.07356936      -0.48510187      -0.00981398
F       -0.62913507      -0.04521546      -0.12371599       0.02893480      -0.02169834       0.05734982       0.15981038      -0.16055916      -0.04912271
Br       3.87066237      -0.21762939      -0.25431274       0.01509260       0.02241179       0.04814080       0.71936921      -0.10908145      -0.09570040
H        1.22229883      -0.36326188      -0.81386811      -0.00386038      -0.00722366      -0.04996601       0.29450628       0.07675403       0.15861861
C        1.05984388      -0.68418145       1.36866481      -0.01765898       0.01008639      -0.02026557      -0.13998865       0.00290300      -0.01593829
H        1.33578793      -1.71881648       1.16048078      -0.06854275       0.00702072       0.00155315      -0.04424276       0.03843161      -0.04618551
H        1.82118131      -0.27191286       2.03145910      -0.00504169      -0.03502588      -0.02109896       0.02619044       0.13186149      -0.27644358
H        0.08986504      -0.66334581       1.86519225       0.01126169       0.03187445       0.02269516       0.01797418      -0.15412602       0.36675638
C        0.25713121       2.15954485       1.29559993       0.00075412      -0.00623082      -0.00452596      -0.05534620       0.07246817       0.02347981
H       -0.75538441       1.75627613       1.25144622       0.00844721      -0.03108075      -0.05796570      -0.11455329       0.18097025       0.14627422
H        0.71441005       1.86799121       2.24494093       0.00856927      -0.01219864      -0.01048226      -0.01096369       0.04180948      -0.01141056
H        0.21485933       3.25083604       1.25579304       0.00928804      -0.00473958       0.00883245       0.00625061       0.07884912       0.01720192
N        0.49659459       2.03610342      -1.19299737      -0.05201747      -0.02203366       0.00203756      -0.05908712       0.10431088       0.00336536
H        0.31198934       3.03101646      -1.17990686       0.03380918       0.01518608      -0.00894226       0.02501608       0.10762008       0.01677151
H       -0.38851341       1.55203735      -1.27608581      -0.05028141       0.00808602       0.06397950      -0.11482211       0.21312949      -0.24011909
17
Properties=species:S:1:pos:R:3:mp2_forces:R:3:forces:R:3 R1=H R2=CH3 R3=CH3 R4=NH2 lg=F nu=Br rxn-id=662 mp2_energy=-78511.85006806512 energy=-78511.07415423394 free_energy=-78511.85006946909 pbc="F F F"
C        0.88689409       0.09523298       0.08658917       0.04638473      -0.01244761      -0.02659224      -1.61954645      -0.11534046      -0.13668588
C        1.05823197       1.61342837       0.09808501       0.01631014       0.02626127      -0.01105577      -0.27578615      -0.11239349       0.01018853
H        2.09107309       1.96817020       0.16067707       0.01855099       0.03175221       0.00630631      -0.07279454      -0.61972261      -0.02324457
F       -0.65527393      -0.01870355      -0.11617008       0.02893480      -0.02169834       0.05734982       1.05595098      -0.09950402       0.20104266
Br       3.75250760      -0.19962635      -0.23814496       0.01509260       0.02241179       0.04814080       1.11441466      -0.17140072      -0.16811246
H        1.17451247      -0.37653129      -0.84128764      -0.00386038      -0.00722366      -0.04996601       0.51103373       0.13461600       0.19817409
C        1.08239516      -0.68529396       1.37000008      -0.01765898       0.01008639      -0.02026557      -0.25080284       0.01038114      -0.03492386
H        1.34324566      -1.72474957       1.16824281      -0.06854275       0.00702072       0.00155315      -0.04612903       0.04527435      -0.07137781
H        1.81647567      -0.29320100       2.07760960      -0.00504169      -0.03502588      -0.02109896      -0.01929286       0.17285240      -0.36622558
H        0.08621726      -0.63834927       1.80432882       0.01126169       0.03187445       0.02269516      -0.02461963      -0.24663001       0.53287131
C        0.26655074       2.14748698       1.29199433       0.00075412      -0.00623082      -0.00452596      -0.05240033       0.11395635       0.01985926
H       -0.73607550       1.72639410       1.22789869       0.00844721      -0.03108075      -0.05796570      -0.10919916       0.19170937       0.16303429
H        0.71694185       1.86138508       2.24674156       0.00856927      -0.01219864      -0.01048226       0.00333551       0.02632133      -0.03222776
H        0.21394881       3.23802052       1.25306936       0.00928804      -0.00473958       0.00883245      -0.02434469       0.09621460       0.03718795
N        0.50698238       2.02067585      -1.19335178      -0.05201747      -0.02203366       0.00203756      -0.07618996       0.16117685      -0.00470479
H        0.30745909       3.01220118      -1.18297036       0.03380918       0.01518608      -0.00894226      -0.01050629       0.13974891      -0.02834627
H       -0.37062188       1.51601561      -1.23633249      -0.05028141       0.00808602       0.06397950      -0.10312298       0.27274001      -0.29650911
17
Properties=species:S:1:pos:R:3:mp2_forces:R:3:forces:R:3 R1=H R2=CH3 R3=CH3 R4=NH2 lg=F nu=Br rxn-id=662 mp2_energy=-78511.85006806512 energy=-78510.6102952494 free_energy=-78511.85006946909 pbc="F F F"
C        0.98266905       0.10102873       0.09253411       0.04638473      -0.01244761      -0.02659224      -2.29721305      -0.08068929      -0.10387514
C        1.07452048       1.62036349       0.09788304       0.01631014       0.02626127      -0.01105577      -0.23513146      -0.07248617       0.00064313
H        2.09526136       2.00467600       0.16191354       0.01855099       0.03175221       0.00630631      -0.04117301      -0.50751045      -0.01664901
F       -0.71754275      -0.01268595      -0.12800568       0.02893480      -0.02169834       0.05734982       1.40874511      -0.06799556       0.28052220
Br       3.68695456      -0.18952647      -0.22796424       0.01509260       0.02241179       0.04814080       1.12757779      -0.17102109      -0.16828546
H        1.14416509      -0.38387506      -0.85183683      -0.00386038      -0.00722366      -0.04996601       0.56498666       0.07192557       0.05285552
C        1.09733586      -0.68551822       1.37297856      -0.01765898       0.01008639      -0.02026557      -0.21253036      -0.00587582      -0.03224589