14
Properties=species:S:1:pos:R:3:mp2_forces:R:3:forces:R:3 R1=NO2 R2=H R3=H R4=CH3 lg=Br nu=Cl rxn-id=876 mp2_energy=-91294.06677935288 energy=-91294.06677184919 free_energy=-91294.06677184919 pbc="F F F"
C        0.50088394      -0.05218653      -0.12519997       0.03290504       0.02595864      -0.04574274       0.03295769       0.02594334      -0.04572063
C        0.92254299       1.39297063      -0.22988621       0.04637425       0.02039649       0.03817023       0.04638425       0.02036158       0.03816959
H        1.97911229       1.34852410      -0.49270521       0.04331527       0.01268493       0.01010468       0.04331837       0.01268804       0.01010758
Br      -1.44159149      -0.28476126       0.01383638       0.04852060       0.01912154      -0.00518978       0.04851101       0.01909276      -0.00519561
Cl       3.37078452      -0.39063125       1.20176041       0.00478337       0.01863775       0.05835553       0.00478714       0.01863805       0.05835546
H        0.95188422      -0.53001195       0.74459109       0.00634838       0.01848005      -0.07754704       0.00630538       0.01850125      -0.07758262
H        0.90420451       1.77269040       0.79358789      -0.01207982       0.04249635       0.05645941      -0.01207843       0.04249651       0.05646556
N        0.95901593      -0.89154707      -1.29605142      -0.02745356       0.00924888      -0.01593921      -0.02747766       0.00929227      -0.01597185
O        1.38856424      -0.31638718      -2.29417468      -0.07543075       0.03895600       0.03517285      -0.07542226       0.03893516       0.03520799
O        0.87862989      -2.10481155      -1.15685296      -0.05882287      -0.05663854      -0.03719682      -0.05881832      -0.05662884      -0.03717351
C        0.14732483       2.32339661      -1.15723996       0.01068444      -0.04109019       0.01529301       0.01067175      -0.04109524       0.01528486
H        0.02090898       1.89671612      -2.15262612       0.03153789      -0.02677625       0.01178720       0.03153763      -0.02677503       0.01177850
H       -0.83815586       2.56807965      -0.75418909      -0.00375625      -0.05022210      -0.02436186      -0.00376341      -0.05021698      -0.02435861
H        0.70665248       3.25912294      -1.25893796      -0.04692600      -0.03125354      -0.01936544      -0.04691316      -0.03123286      -0.01936672
14
Properties=species:S:1:pos:R:3:mp2_forces:R:3:forces:R:3 R1=NO2 R2=H R3=H R4=CH3 lg=Br nu=Cl rxn-id=876 mp2_energy=-91294.06677935288 energy=-91294.09118903903 free_energy=-91294.06677184919 pbc="F F F"
C        0.52196210      -0.03910577      -0.13315132       0.03290504       0.02595864      -0.04574274       0.00529478      -0.00643587      -0.00247406
C        0.95923369       1.40254891      -0.24183628       0.04637425       0.02039649       0.03817023      -0.00332351      -0.00439739       0.00265257
H        2.00870518       1.35705100      -0.53786716       0.04331527       0.01268493       0.01010468       0.00319758       0.00228927       0.02397714
Br      -1.42400813      -0.24941177       0.01769696       0.04852060       0.01912154      -0.00518978       0.01189654      -0.01066080       0.05082668
Cl       3.31472098      -0.42125977       1.31506504       0.00478337       0.01863775       0.05835553       0.00600458       0.02761604       0.05639501
H        0.97472046      -0.52294912       0.73095717       0.00634838       0.01848005      -0.07754704       0.03525137      -0.00889605      -0.01753315
H        0.97166847       1.78464225       0.78196205      -0.01207982       0.04249635       0.05645941      -0.02604268      -0.00641340       0.00376562
N        0.94293429      -0.88500731      -1.31060465      -0.02745356       0.00924888      -0.01593921      -0.02211568       0.00558050      -0.02115822
O        1.30596912      -0.31036787      -2.33563203      -0.07543075       0.03895600       0.03517285      -0.04238899       0.01441987      -0.02357385
O        0.89204438      -2.09836764      -1.15658202      -0.05882287      -0.05663854      -0.03719682      -0.01513015       0.00358052      -0.03064515
C        0.14650359       2.31407201      -1.15306046       0.01068444      -0.04109019       0.01529301       0.00881310      -0.00490283      -0.00886488
H        0.05731159       1.89685367      -2.15602098       0.03153789      -0.02677625       0.01178720       0.01890959      -0.00496758      -0.00948134
H       -0.85705548       2.47339478      -0.75463278      -0.00375625      -0.05022210      -0.02436186       0.00524141       0.00046035      -0.01965805
H        0.63605123       3.28907030      -1.23038135      -0.04692600      -0.03125354      -0.01936544       0.01439204      -0.00727263      -0.00422833
14
Properties=species:S:1:pos:R:3:mp2_forces:R:3:forces:R:3 R1=NO2 R2=H R3=H R4=CH3 lg=Br nu=Cl rxn-id=876 mp2_energy=-91294.06677935288 energy=-91294.07846924436 free_energy=-91294.06677184919 pbc="F F F"
C        0.51301101      -0.03667240      -0.12934326       0.03290504       0.02595864      -0.04574274       0.00489683      -0.00674032      -0.00148551
C        0.95528903       1.40418866      -0.23739975       0.04637425       0.02039649       0.03817023      -0.00424602      -0.00477308       0.00374353
H        2.00412558       1.35518948      -0.53428300       0.04331527       0.01268493       0.01010468       0.00309367       0.00105925       0.02750860
Br      -1.43825258      -0.24368094      -0.02573518       0.04852060       0.01912154      -0.00518978       0.01093207      -0.01149480       0.05629227
Cl       3.33147420      -0.43042059       1.24094402       0.00478337       0.01863775       0.05835553       0.00885621       0.02927656       0.05995423
H        0.93949558      -0.52011393       0.74685227       0.00634838       0.01848005      -0.07754704       0.03968430      -0.00956900      -0.01772517
H        0.96962940       1.78753825       0.78592908      -0.01207982       0.04249635       0.05645941      -0.02960554      -0.00625255       0.00477563
N        0.95816703      -0.89104624      -1.29182570      -0.02745356       0.00924888      -0.01593921      -0.02434196       0.00732558      -0.02331916
O        1.32973985      -0.32301056      -2.31709993      -0.07543075       0.03895600       0.03517285      -0.04581192       0.01791193      -0.02536445
O        0.91038820      -2.10290381      -1.12732865      -0.05882287      -0.05663854      -0.03719682      -0.01647181       0.00486266      -0.03475966
C        0.14488873       2.31817521      -1.14824234       0.01068444      -0.04109019       0.01529301       0.00966961      -0.00609104      -0.01019275
H        0.05123791       1.90023836      -2.15063022       0.03153789      -0.02677625       0.01178720       0.02112624      -0.00718564      -0.01054612
H       -0.85713252       2.48279810      -0.74817207      -0.00375625      -0.05022210      -0.02436186       0.00548114       0.00095170      -0.02290558
H        0.63870005       3.29088407      -1.22775306      -0.04692600      -0.03125354      -0.01936544       0.01673717      -0.00928125      -0.00597585
14
Properties=species:S:1:pos:R:3:mp2_forces:R:3:forces:R:3 R1=NO2 R2=H R3=H R4=CH3 lg=Br nu=Cl rxn-id=876 mp2_energy=-91294.06677935288 energy=-91294.063937076 free_energy=-91294.06677184919 pbc="F F F"
C        0.50477457      -0.03289120      -0.12283190       0.03290504       0.02595864      -0.04574274       0.00131484      -0.00819619      -0.00281215
C        0.95376532       1.40695455      -0.22833256       0.04637425       0.02039649       0.03817023      -0.01070211      -0.00659653       0.00154975
H        2.00258453       1.35506809      -0.52386330       0.04331527       0.01268493       0.01010468      -0.00222258      -0.00560922       0.02887122
Br      -1.45199922      -0.23347835      -0.07238709       0.04852060       0.01912154      -0.00518978       0.00796127      -0.01605092       0.06679402
Cl       3.34513893      -0.43657628       1.15210080       0.00478337       0.01863775       0.05835553       0.02215562       0.02625944       0.06981698
H        0.89933864      -0.51917691       0.76511876       0.00634838       0.01848005      -0.07754704       0.05035322      -0.00761447      -0.02017935
H        0.96758182       1.79294885       0.79412951      -0.01207982       0.04249635       0.05645941      -0.03872101      -0.00962917       0.00346033
N        0.97254115      -0.89342092      -1.27173611      -0.02745356       0.00924888      -0.01593921      -0.02589686       0.00600442      -0.02550240
O        1.35036051      -0.32999496      -2.29685673      -0.07543075       0.03895600       0.03517285      -0.04389116       0.01613945      -0.02675888
O        0.92663505      -2.10399861      -1.09965362      -0.05882287      -0.05663854      -0.03719682      -0.01578144       0.00349665      -0.03525386
C        0.14548313       2.31817208      -1.14335205       0.01068444      -0.04109019       0.01529301       0.00882628      -0.00265387      -0.01275235
H        0.05296574       1.89360313      -2.14312099       0.03153789      -0.02677625       0.01178720       0.01947188       0.00156453      -0.01532746
H       -0.85706756       2.48329060      -0.74526632      -0.00375625      -0.05022210      -0.02436186       0.00445297       0.01143271      -0.02760534
H        0.63865887       3.29066359      -1.22803619      -0.04692600      -0.03125354      -0.01936544       0.02267907      -0.00854685      -0.00430052
14
Properties=species:S:1:pos:R:3:mp2_forces:R:3:forces:R:3 R1=NO2 R2=H R3=H R4=CH3 lg=Br nu=Cl rxn-id=876 mp2_energy=-91294.06677935288 energy=-91294.01993022647 free_energy=-91294.06677184919 pbc="F F F"
C        0.50130517      -0.02190382      -0.11263725       0.03290504       0.02595864      -0.04574274      -0.03332229      -0.01225081      -0.01433668
C        0.96710068       1.41632565      -0.21947957       0.04637425       0.02039649       0.03817023      -0.04355158      -0.01734532      -0.00650914
H        2.00787482       1.36504276      -0.54074253       0.04331527       0.01268493       0.01010468      -0.03000455      -0.05768557       0.03931107
Br      -1.46566237      -0.21115849      -0.16910417       0.04852060       0.01912154      -0.00518978       0.00454174      -0.02102853       0.09248039
Cl       3.31516179      -0.45908201       1.01509985       0.00478337       0.01863775       0.05835553       0.11042971       0.01161294       0.11663997
H        0.82265283      -0.51323335       0.79904222       0.00634838       0.01848005      -0.07754704       0.09504293       0.00354691      -0.03908669
H        1.00645311       1.80823793       0.80026927      -0.01207982       0.04249635       0.05645941      -0.07493218      -0.03061002      -0.00030974
N        1.00504757      -0.89758994      -1.23396734      -0.02745356       0.00924888      -0.01593921      -0.03760167       0.00384019      -0.03293047
O        1.38890533      -0.34543330      -2.26239513      -0.07543075       0.03895600       0.03517285      -0.03121491       0.01001315      -0.02671362
O        0.95796525      -2.10528920      -1.04726307      -0.05882287      -0.05663854      -0.03719682      -0.00911818       0.00215171      -0.02901823
C        0.14071603       2.31682135      -1.12697468       0.01068444      -0.04109019       0.01529301       0.00385126       0.01450574      -0.02244660
H        0.04755011       1.87894522      -2.12111025       0.03153789      -0.02677625       0.01178720       0.00640240       0.03608386      -0.03215634
H       -0.86087480       2.46316751      -0.72121493      -0.00375625      -0.05022210      -0.02436186      -0.00095812       0.05668599      -0.04262167
H        0.61656595       3.29631333      -1.22361022      -0.04692600      -0.03125354      -0.01936544       0.04043545       0.00047976      -0.00230224
14
Properties=species:S:1:pos:R:3:mp2_forces:R:3:forces:R:3 R1=NO2 R2=H R3=H R4=CH3 lg=Br nu=Cl rxn-id=876 mp2_energy=-91294.06677935288 energy=-91293.9034227645 free_energy=-91294.06677184919 pbc="F F F"
C        0.53093005      -0.01262777      -0.10104725       0.03290504       0.02595864      -0.04574274      -0.33254811      -0.00125579      -0.07727143
C        1.00502340       1.43110204      -0.21455592       0.04637425       0.02039649       0.03817023      -0.14864075      -0.04789539      -0.01522826
H        2.03337709       1.41919466      -0.57812304       0.04331527       0.01268493       0.01010468      -0.11962333      -0.26350450       0.06140857
Br      -1.47020751      -0.19599382      -0.26199435       0.04852060       0.01912154      -0.00518978       0.14893449       0.02867125       0.09433012
Cl       3.21351225      -0.46425590       0.90537248       0.00478337       0.01863775       0.05835553       0.37294362      -0.05005433       0.23525336
H        0.73370260      -0.51617758       0.83495523       0.00634838       0.01848005      -0.07754704       0.25545988       0.05704999      -0.10386739
H        1.07322306       1.83262968       0.80041050      -0.01207982       0.04249635       0.05645941      -0.11353512      -0.08484691      -0.00222126
N        1.04088299      -0.90506892      -1.20302996      -0.02745356       0.00924888      -0.01593921      -0.09453311       0.01649555      -0.04036954
O        1.41230272      -0.36205045      -2.24097697      -0.07543075       0.03895600       0.03517285       0.01524519       0.00891593      -0.00023448
O        0.97511522      -2.11082439      -1.01311391      -0.05882287      -0.05663854      -0.03719682       0.02496944       0.01543131       0.00674089
C        0.13715854       2.30687349      -1.10450768       0.01068444      -0.04109019       0.01529301      -0.01517501       0.06151816      -0.03504624
H        0.03674250       1.85049903      -2.08970866       0.03153789      -0.02677625       0.01178720      -0.00884494       0.08523904      -0.04840195
H       -0.85796959       2.42223919      -0.67764307      -0.00375625      -0.05022210      -0.02436186      -0.02458395       0.13452412      -0.06390951
H        0.58696816       3.29562439      -1.22012521      -0.04692600      -0.03125354      -0.01936544       0.03993171       0.03971157      -0.01118288
14
Properties=species:S:1:pos:R:3:mp2_forces:R:3:forces:R:3 R1=NO2 R2=H R3=H R4=CH3 lg=Br nu=Cl rxn-id=876 mp2_energy=-91294.06677935288 energy=-91293.65338308888 free_energy=-91294.06677184919 pbc="F F F"
C        0.61917340      -0.01253021      -0.08074075       0.03290504       0.02595864      -0.04574274      -1.08739287       0.03475749      -0.21997825
C        1.04446227       1.44351228      -0.21009773       0.04637425       0.02039649       0.03817023      -0.22619198      -0.06227563      -0.01399179
H        2.06530708       1.48944394      -0.59352066       0.04331527       0.01268493       0.01010468      -0.16250772      -0.37071155       0.07048188
Br      -1.51109185      -0.20364229      -0.29100967       0.04852060       0.01912154      -0.00518978       0.59747923       0.10436330       0.06155803
Cl       3.11464342      -0.44825002       0.83904941       0.00478337       0.01863775       0.05835553       0.57851484      -0.11241157       0.29877194
H        0.66287915      -0.53158654       0.86298282       0.00634838       0.01848005      -0.07754704       0.42966369       0.07860234      -0.09977723
H        1.10335266       1.85434390       0.80155987      -0.01207982       0.04249635       0.05645941      -0.08601463      -0.09159783      -0.00256608
N        1.06657604      -0.91001659      -1.19167396      -0.02745356       0.00924888      -0.01593921      -0.13584060       0.01287397      -0.02717678
O        1.40636025      -0.36564457      -2.24104718      -0.07543075       0.03895600       0.03517285       0.05501575       0.00298174       0.03572586
O        0.97183830      -2.11570135      -1.01258213      -0.05882287      -0.05663854      -0.03719682       0.06160921       0.01753982       0.03000805
C        0.14150905       2.29070270      -1.09466772       0.01068444      -0.04109019       0.01529301      -0.01626520       0.09662956      -0.02899188
H        0.03763835       1.82749749      -2.07589770       0.03153789      -0.02677625       0.01178720       0.00200748       0.07689546      -0.03034571
H       -0.85027700       2.38866489      -0.65878558      -0.00375625      -0.05022210      -0.02436186      -0.02460163       0.14261097      -0.04734818
H        0.57839035       3.28437003      -1.21765683      -0.04692600      -0.03125354      -0.01936544       0.01452444       0.06974193      -0.02636986
14
Properties=species:S:1:pos:R:3:mp2_forces:R:3:forces:R:3 R1=NO2 R2=H R3=H R4=CH3 lg=Br nu=Cl rxn-id=876 mp2_energy=-91294.06677935288 energy=-91293.45130839811 free_energy=-91294.06677184919 pbc="F F F"
C        0.70518960      -0.01538123      -0.06338677       0.03290504       0.02595864      -0.04574274      -1.09812333       0.05963100      -0.24344163
C        1.06241649       1.44842005      -0.20911074       0.04637425       0.02039649       0.03817023      -0.16159990      -0.04242505      -0.00983275
H        2.07815561       1.51869200      -0.59931254       0.04331527       0.01268493       0.01010468      -0.10613174      -0.25845615       0.04919682
Br      -1.55840479      -0.21207267      -0.29661703       0.04852060       0.01912154      -0.00518978       0.53764562       0.08626849       0.03099225
Cl       3.06884316      -0.43902874       0.81531366       0.00478337       0.01863775       0.05835553       0.47678158      -0.09114596       0.22623943
H        0.62828063      -0.53764028       0.87075056       0.00634838       0.01848005      -0.07754704       0.36851900       0.02323187      -0.00854318
H        1.11021743       1.86139961       0.80179134      -0.01207982       0.04249635       0.05645941      -0.04460167      -0.05863241      -0.00448760
N        1.07741189      -0.91146258      -1.18921022      -0.02745356       0.00924888      -0.01593921      -0.06853889       0.00147905      -0.01098361
O        1.40170194      -0.36618574      -2.24429753      -0.07543075       0.03895600       0.03517285       0.04293123      -0.00385710       0.02637447
O        0.96777636      -2.11713718      -1.01447673      -0.05882287      -0.05663854      -0.03719682       0.05216148       0.00580076       0.02067481
C        0.14278255       2.28321877      -1.09218341       0.01068444      -0.04109019       0.01529301      -0.00130901       0.07832028      -0.01756527
H        0.03689782       1.82157933      -2.07329360       0.03153789      -0.02677625       0.01178720       0.00279348       0.04796948      -0.01245763
H       -0.84813483       2.37797756      -0.65445926      -0.00375625      -0.05022210      -0.02436186      -0.00792446       0.09586744      -0.02397473
H        0.57762761       3.27878476      -1.21559555      -0.04692600      -0.03125354      -0.01936544       0.00739661       0.05594830      -0.02219138
14
Properties=species:S:1:pos:R:3:mp2_forces:R:3:forces:R:3 R1=NO2 R2=H R3=H R4=CH3 lg=Br nu=Cl rxn-id=876 mp2_energy=-91294.06677935288 energy=-91293.32889150601 free_energy=-91294.06677184919 pbc="F F F"
C        0.78454209      -0.01971862      -0.04589349       0.03290504       0.02595864      -0.04574274      -0.60848553       0.04500025      -0.14905639
C        1.07411080       1.45144728      -0.20847100       0.04637425       0.02039649       0.03817023      -0.07189141      -0.01707597      -0.00656452
H        2.08582797       1.53728527      -0.60302353       0.04331527       0.01268493       0.01010468      -0.04521650      -0.11594356       0.02106922
Br      -1.59741832      -0.21842704      -0.29963403       0.04852060       0.01912154      -0.00518978       0.26630210       0.04119775       0.00506938
Cl       3.03440164      -0.43211674       0.79883989       0.00478337       0.01863775       0.05835553       0.25107274      -0.04365165       0.11159984
H        0.60119774      -0.53920215       0.87131861       0.00634838       0.01848005      -0.07754704       0.18446021      -0.00939775       0.03110573
H        1.11354004       1.86543535       0.80211472      -0.01207982       0.04249635       0.05645941      -0.01531276      -0.02706760      -0.00358433
N        1.08245743      -0.91193282      -1.18819175      -0.02745356       0.00924888      -0.01593921      -0.01958023      -0.00243739      -0.00205937
O        1.39828904      -0.36619979      -2.24646505      -0.07543075       0.03895600       0.03517285       0.01980867      -0.00676765       0.00731854
O        0.96474334      -2.11763037      -1.01552778      -0.05882287      -0.05663854      -0.03719682       0.03148923      -0.00272576       0.01079296
C        0.14285755       2.27770675      -1.09076623       0.01068444      -0.04109019       0.01529301       0.00323156       0.04182345      -0.00700423
H        0.03615858       1.81822076      -2.07217778       0.03153789      -0.02677625       0.01178720      -0.00215854       0.02155594      -0.00171679
H       -0.84738117       2.37158388      -0.65218385      -0.00375625      -0.05022210      -0.02436186       0.00086946       0.04638472      -0.00507686
H        0.57743475       3.27471189      -1.21402654      -0.04692600      -0.03125354      -0.01936544       0.00541099       0.02910522      -0.01189319
14
Properties=species:S:1:pos:R:3:mp2_forces:R:3:forces:R:3 R1=NO2 R2=H R3=H R4=CH3 lg=Br nu=Cl rxn-id=876 mp2_energy=-91294.06677935288 energy=-91293.298671189 free_energy=-91294.06677184919 pbc="F F F"
C        0.86711547      -0.02588405      -0.02580058       0.03290504       0.02595864      -0.04574274       0.18910160      -0.01608657       0.04715398
C        1.08387728       1.45370682      -0.20772298       0.04637425       0.02039649       0.03817023       0.02144819       0.00342741       0.00122944
H        2.09195136       1.55284732      -0.60612962       0.04331527       0.01268493       0.01010468       0.01308542       0.03214444      -0.00806381
Br      -1.63390285      -0.22424806      -0.30180095       0.04852060       0.01912154      -0.00518978      -0.08402988      -0.01474879      -0.01465742
Cl       3.00024924      -0.42560326       0.78341234       0.00478337       0.01863775       0.05835553      -0.08299943       0.01915206      -0.03767494
H        0.57545141      -0.53768854       0.86697793       0.00634838       0.01848005      -0.07754704      -0.05926496       0.00942418      -0.01682877
H        1.11581825       1.86873216       0.80260117      -0.01207982       0.04249635       0.05645941       0.00605698       0.00452759       0.00137671
N        1.08533116      -0.91208397      -1.18763983      -0.02745356       0.00924888      -0.01593921       0.00892575      -0.00276918       0.00297387
O        1.39497913      -0.36589626      -2.24781931      -0.07543075       0.03895600       0.03517285      -0.01277089      -0.00361333      -0.00415726
O        0.96187155      -2.11753031      -1.01612484      -0.05882287      -0.05663854      -0.03719682       0.00344098      -0.00166500       0.00542186
C        0.14237592       2.27232359      -1.08954593       0.01068444      -0.04109019       0.01529301      -0.00155616      -0.01074448       0.00487795
H        0.03544900       1.81547122      -2.07153648       0.03153789      -0.02677625       0.01178720      -0.00890275      -0.00487957       0.00412223
H       -0.84715151       2.36629547      -0.65046098      -0.00375625      -0.05022210      -0.02436186       0.00279912      -0.00412417       0.01122820
H        0.57734608       3.27072152      -1.21249775      -0.04692600      -0.03125354      -0.01936544       0.00466603      -0.01004459       0.00299795
14
Properties=species:S:1:pos:R:3:mp2_forces:R:3:forces:R:3 R1=NO2 R2=H R3=H R4=CH3 lg=Br nu=Cl rxn-id=876 mp2_energy=-91294.06677935288 energy=-91293.3806086734 free_energy=-91294.06677184919 pbc="F F F"
C        0.94864013      -0.03332058      -0.00428610       0.03290504       0.02595864      -0.04574274       0.99865027      -0.09130715       0.26269933
C        1.09276087       1.45472878      -0.20644452       0.04637425       0.02039649       0.03817023       0.10866349       0.01221915       0.01454526
H        2.09733524       1.56631997      -0.60854567       0.04331527       0.01268493       0.01010468       0.06573833       0.16371141      -0.03117472
Br      -1.66802597      -0.22974093      -0.30292180       0.04852060       0.01912154      -0.00518978      -0.42112613      -0.06905455      -0.02452417
Cl       2.96323015      -0.41908953       0.76794414       0.00478337       0.01863775       0.05835553      -0.45451817       0.08360042      -0.19135289
H        0.55374458      -0.53255225       0.85753358       0.00634838       0.01848005      -0.07754704      -0.26994311       0.06467833      -0.11664606
H        1.11749541       1.87171885       0.80333668      -0.01207982       0.04249635       0.05645941       0.02210898       0.03390140       0.00896959
N        1.08866428      -0.91207020      -1.18678820      -0.02745356       0.00924888      -0.01593921       0.04272155      -0.00178542       0.01134875
O        1.39130006      -0.36515955      -2.24824141      -0.07543075       0.03895600       0.03517285      -0.04984872       0.00398690      -0.00700211
O        0.95875031      -2.11672649      -1.01638971      -0.05882287      -0.05663854      -0.03719682      -0.02780031       0.00662565       0.00318316
C        0.14183127       2.26645532      -1.08819762       0.01068444      -0.04109019       0.01529301      -0.00706649      -0.06956524       0.01834575
H        0.03484248       1.81289966      -2.07118917       0.03153789      -0.02677625       0.01178720      -0.01480950      -0.03030552       0.00723645
H       -0.84717886       2.36151286      -0.64911573      -0.00375625      -0.05022210      -0.02436186       0.00227126      -0.05109761       0.02427329
H        0.57737152       3.26618774      -1.21078228      -0.04692600      -0.03125354      -0.01936544       0.00495855      -0.05560777       0.02009838
14
Properties=species:S:1:pos:R:3:mp2_forces:R:3:forces:R:3 R1=NO2 R2=H R3=H R4=CH3 lg=Br nu=Cl rxn-id=876 mp2_energy=-91294.06677935288 energy=-91293.5675131503 free_energy=-91294.06677184919 pbc="F F F"
C        1.03104959      -0.04202962       0.01908508       0.03290504       0.02595864      -0.04574274       1.47057130      -0.15561244       0.41626316
C        1.10343922       1.45465358      -0.20443667       0.04637425       0.02039649       0.03817023       0.19028099      -0.00157942       0.03466020
H        2.10383930       1.58154065      -0.61093930       0.04331527       0.01268493       0.01010468       0.11580703       0.27031836      -0.04406861
Br      -1.70502824      -0.23595142      -0.30333368       0.04852060       0.01912154      -0.00518978      -0.66438387      -0.11267266      -0.01809807
Cl       2.92103320      -0.41194850       0.75134276       0.00478337       0.01863775       0.05835553      -0.75443697       0.13094665      -0.29815663
H        0.53420285      -0.52395784       0.84290154       0.00634838       0.01848005      -0.07754704      -0.35200308       0.15516253      -0.26197184
H        1.11961650       1.87532725       0.80423078      -0.01207982       0.04249635       0.05645941       0.03956711       0.06182987       0.01591720
N        1.09468914      -0.91196480      -1.18500245      -0.02745356       0.00924888      -0.01593921       0.11042431       0.00410807       0.03026305
O        1.38665570      -0.36413006      -2.24818783      -0.07543075       0.03895600       0.03517285      -0.08815307       0.01204825       0.00113834
O        0.95484107      -2.11531868      -1.01665783      -0.05882287      -0.05663854      -0.03719682      -0.05938492       0.01889997       0.00194575
C        0.14180317       2.25912699      -1.08625317       0.01068444      -0.04109019       0.01529301      -0.00083032      -0.12830933       0.03639910
H        0.03428687       1.80968384      -2.07071276       0.03153789      -0.02677625       0.01178720      -0.01723541      -0.05629382       0.01150995
H       -0.84698065       2.35571054      -0.64746906      -0.00375625      -0.05022210      -0.02436186       0.00625784      -0.09613002       0.03740193
H        0.57731376       3.26042175      -1.20865521      -0.04692600      -0.03125354      -0.01936544       0.00351906      -0.10271602       0.03679646
14
Properties=species:S:1:pos:R:3:mp2_forces:R:3:forces:R:3 R1=NO2 R2=H R3=H R4=CH3 lg=Br nu=Cl rxn-id=876 mp2_energy=-91294.06677935288 energy=-91293.81435413081 free_energy=-91294.06677184919 pbc="F F F"
C        1.11571908      -0.05053255       0.04230239       0.03290504       0.02595864      -0.04574274       1.09612001      -0.11027168       0.30030165
C        1.12150389       1.45422347      -0.20156613       0.04637425       0.02039649       0.03817023       0.23436006      -0.00497252       0.03525845
H        2.11593876       1.60639071      -0.61384294       0.04331527       0.01268493       0.01010468       0.15677858       0.32145029      -0.03851243
Br      -1.75819125      -0.24570655      -0.30139572       0.04852060       0.01912154      -0.00518978      -0.69741937      -0.12946795       0.01341066
Cl       2.87409239      -0.40567187       0.73645422       0.00478337       0.01863775       0.05835553      -0.61138608       0.08409427      -0.19368131
H        0.51307428      -0.50715485       0.81592195       0.00634838       0.01848005      -0.07754704      -0.27375301       0.21970790      -0.34984047
H        1.12444488       1.88117768       0.80530941      -0.01207982       0.04249635       0.05645941       0.06629432       0.07285189       0.01383795