21
Lattice="1.0 0.0 0.0 0.0 1.0 0.0 0.0 0.0 1.0" Properties=species:S:1:pos:R:3:mp2_forces:R:3:forces:R:3 mp2_energy=-25669.004809123442 energy=-25673.290869049262 free_energy=-25673.290869049262 pbc="F F F"
C        0.45590615      -1.05897369       0.02493996       0.02520861      -0.02838867       0.00005940       0.00060496      -0.00383666       0.00162078
C        1.73160273      -0.25975971       0.06972885      -0.03334038      -0.00005276       0.00015753      -0.00226337       0.00070658       0.00098236
H        2.35699724      -0.53947377       0.92118383      -0.02379320       0.02684727      -0.00003962      -0.00208332       0.00544334       0.00254102
F       -0.75511557       1.29657538      -0.12097230       0.00764467      -0.04609678       0.00057088      -0.00758369      -0.00905290      -0.02561702
Cl       0.81580457      -2.84535169      -0.16752489      -0.00303207       0.00327824       0.00000605       0.00590412      -0.00202635      -0.00134929
H       -0.17292072      -0.76179906      -0.80346898       0.02531842       0.02018914       0.01193200      -0.00162143      -0.00341216       0.00334538
H       -0.11930751      -0.96407092       0.93897703       0.02518310       0.02041626      -0.01261682       0.00157081      -0.00746596       0.00307034
H        1.41958342       0.78098423       0.15241505      -0.01807683      -0.00921250      -0.02739735      -0.00564594       0.00008646      -0.00325942
H        2.31031376      -0.38567903      -0.84797313      -0.01896744      -0.00939623       0.02743771      -0.00100770      -0.00008143       0.00194453
O       -3.24880258       1.94741273       0.19042416       0.01788502       0.00752596       0.00024092       0.00790496       0.01944760       0.02138554
H       -3.19311758       2.79767073      -0.24219415      -0.00005808      -0.00429745      -0.00004192      -0.00037774      -0.00391041      -0.02225462
H       -2.33211927       1.59222036       0.12422604      -0.01992517       0.01473028      -0.00017627       0.00183954       0.00952424       0.01059259
O        0.53557570       3.51230755      -0.29888708      -0.00762941      -0.01045076       0.00072020      -0.00616415      -0.00801423       0.00303283
H        0.35824293       3.80364396       0.59459095       0.00884785       0.01126170      -0.00104918       0.01193202      -0.02989676       0.01390913
H        0.04460748       2.65485635      -0.36357261       0.00793100       0.02846349       0.00013742      -0.00869057      -0.00461210      -0.00876208
O       -1.26278718      -5.65345032      -0.06876751       0.00087592      -0.00433965      -0.00013380       0.00082336       0.00370288      -0.00129028
H       -0.31921725      -5.80542943      -0.04082551      -0.01595972      -0.00288001       0.00008316       0.00271934       0.01528790       0.00387043
H       -1.35610829      -4.70009194      -0.09160378      -0.00237884      -0.01175777       0.00009761      -0.00999021       0.00286524      -0.00412742
O        3.92416936      -4.35718580      -0.00609817       0.00214457       0.00063924      -0.00006669       0.00395456       0.00251521      -0.00071240
H        3.25701333      -5.04221250      -0.00120771       0.01577206       0.00171354      -0.00000083      -0.00078105       0.00709010       0.00371286
H        3.43388560      -3.53444939      -0.04105411       0.00634992      -0.00819253       0.00007960       0.00895547       0.00563942      -0.00263526
