21
Lattice="1.0 0.0 0.0 0.0 1.0 0.0 0.0 0.0 1.0" Properties=species:S:1:pos:R:3:mp2_forces:R:3:forces:R:3 mp2_energy=-25673.665219008897 energy=-25674.00000887593 free_energy=-25674.00000887593 pbc="F F F"
C        0.14606299      -0.23861556       0.02308606       0.42961447       0.36064117      -1.19178363       0.00177141      -0.00466653      -0.00515134
C        1.61056636       0.03863947       0.05654989       0.63477149       2.18077115      -1.30780790      -0.00070580       0.00362097      -0.00222587
H        2.17413713      -0.82826501       0.30817537       0.23675911      -0.79602364       0.37177831       0.00513300       0.00198689      -0.01552557
F       -0.57647614       0.96631783      -0.29921584       0.20985785       0.05700742       0.26642105      -0.00396999      -0.00928353      -0.01023889
Cl       0.92672972      -3.40120066       0.04673495      -0.15781271       0.02630707       0.05417045       0.00298302      -0.00766322       0.02059906
H       -0.09719503      -0.91376913      -0.76920494      -0.25637741      -0.58338762      -0.17869184       0.00803442      -0.00751329      -0.00402454
H       -0.19649392      -0.58382326       0.96209912      -0.60865563      -0.35701265       0.90221477       0.00145788      -0.00420912      -0.00579310
H        1.81122525       0.86452480       0.75019680       0.08028001      -0.25582371       0.18937391      -0.00291592      -0.00524533       0.00938272
H        2.01329744       0.41598615      -0.93576274      -0.69468697      -0.56230553       0.90558358      -0.00325514       0.02050384       0.00135400
O       -3.17704855       2.09176841       0.22894201       1.09652402      -1.74421581       0.34305092       0.02398902       0.04045476       0.00635658
H       -2.92426400       2.75889092      -0.37369415       0.02319547       1.35161566      -0.86207316       0.02804823       0.01287895      -0.02456182
H       -2.43828544       1.45273461       0.09188517      -1.06682257       0.45642081       0.52837488       0.00926455       0.02199541       0.01706540
O        0.44945188       3.68898110      -0.24031016      -0.03948797       0.50943360       0.25098236      -0.04567442       0.00140192       0.00151353
H        0.08069280       3.89267161       0.62261475       0.07337354      -0.11010915      -0.18199043      -0.00412384      -0.02951754       0.02361454
H        0.30064437       2.76011376      -0.37885390      -0.12728238      -0.46462573      -0.06046215      -0.03099053       0.00143283      -0.01365632
O       -1.34565791      -5.76822506      -0.07702999      -0.92930183       3.01365046       0.11670018      -0.00561584      -0.00305274      -0.00242627
H       -0.61013719      -6.32384760      -0.03318332       1.65253944      -1.20782866       0.07796045      -0.01401706      -0.01513092      -0.00023471
H       -0.93815510      -4.84699672       0.00187575      -0.69018465      -1.80335228      -0.21273763       0.00594475      -0.00877758       0.00331048
O        3.91313640      -4.39179220      -0.02994645       1.81608370      -2.10446137      -0.00134225       0.00617242       0.00085537      -0.00515555
H        3.62118656      -5.32811920       0.01232136      -0.01487940       1.55577429      -0.05022928       0.01727713      -0.00248414       0.00543558
H        3.15989200      -3.84045878      -0.00612859      -1.66750758       0.47752451       0.04050743       0.00119272      -0.00758699       0.00036207
21
Lattice="1.0 0.0 0.0 0.0 1.0 0.0 0.0 0.0 1.0" Properties=species:S:1:pos:R:3:mp2_forces:R:3:forces:R:3 mp2_energy=-25672.981574694004 energy=-25673.290869049262 free_energy=-25673.290869049262 pbc="F F F"
C        0.43747073      -1.07070004       0.04821994       0.68716501      -0.29160136      -1.46691367       0.00060496      -0.00383666       0.00162078
C        1.70676825      -0.29946431       0.09586303       0.76006255       2.17157362      -1.00862814      -0.00226337       0.00070658       0.00098236
H        2.37175338      -0.53189154       0.92120361      -0.10719810      -0.15855295       0.38315598      -0.00208332       0.00544334       0.00254102
F       -0.77721627       1.27770924      -0.13537971       0.03828000       0.16436820      -0.04472580      -0.00758369      -0.00905290      -0.02561702
Cl       0.86143036      -2.84465234      -0.18101626      -0.34987982       0.00740684       0.08819059       0.00590412      -0.00202635      -0.00134929
H       -0.16855796      -0.73846138      -0.79786601       0.06496157      -0.26742995       0.34839347      -0.00162143      -0.00341216       0.00334538
H       -0.10809045      -0.96291863       0.94427789      -0.70753821      -0.12403477       0.94025388       0.00157081      -0.00746596       0.00307034
H        1.37536407       0.78041100       0.14714519       0.37822360      -1.13189813       0.14030558      -0.00564594       0.00008646      -0.00325942
H        2.33655557      -0.36681107      -0.83117791      -0.75520197      -0.21522424       0.59617564      -0.00100770      -0.00008143       0.00194453
O       -3.26439333       1.94817852       0.20070379       1.32118181      -2.21630757       0.83605507       0.00790496       0.01944760       0.02138554
H       -3.19320234       2.74140588      -0.25697004      -0.15506734       2.15334167      -1.16086892      -0.00037774      -0.00391041      -0.02225462
H       -2.30973103       1.59994141       0.10228454      -1.13645047       0.04449581       0.36264032       0.00183954       0.00952424       0.01059259
O        0.55973661       3.52413241      -0.29767926      -0.05129776       0.08077876       0.28587805      -0.00616415      -0.00801423       0.00303283
H        0.36881813       3.84314288       0.58850319       0.06813875      -0.09564112      -0.20619777       0.01193202      -0.02989676       0.01390913
H        0.06698484       2.67349925      -0.34700782      -0.10122208      -0.14082349      -0.08660955      -0.00869057      -0.00461210      -0.00876208
O       -1.26226123      -5.67339453      -0.11139647      -2.03094634       2.22539046      -0.06773517       0.00082336       0.00370288      -0.00129028
H       -0.35245337      -5.81276019      -0.04024119       2.04071228      -0.44272343       0.15086557       0.00271934       0.01528790       0.00387043
H       -1.34048020      -4.68046646      -0.08191006      -0.00571905      -1.74901273      -0.08944365      -0.00999021       0.00286524      -0.00412742
O        3.88864399      -4.35904688       0.01112601       0.41778545      -0.58528411       0.02154606       0.00395456       0.00251521      -0.00071240
H        3.24435879      -5.08032802      -0.01355433       0.09534804       0.98057710       0.00404210      -0.00078105       0.00709010       0.00371286
H        3.46181110      -3.50200971      -0.00397698      -0.47133794      -0.40939863      -0.02637965       0.00895547       0.00563942      -0.00263526
21
Lattice="1.0 0.0 0.0 0.0 1.0 0.0 0.0 0.0 1.0" Properties=species:S:1:pos:R:3:mp2_forces:R:3:forces:R:3 mp2_energy=-25673.727989530515 energy=-25674.00000887593 free_energy=-25674.00000887593 pbc="F F F"
C        0.15586850      -0.21810170      -0.00021916       0.69981635      -0.84257102      -0.92606518       0.00177141      -0.00466653      -0.00515134
C        1.65662330       0.08241137       0.04372716      -1.27940512      -0.92958630      -1.45961088      -0.00070580       0.00362097      -0.00222587
H        2.13850869      -0.86152546       0.30732491       0.12151510       0.20773691       0.02288511       0.00513300       0.00198689      -0.01552557
F       -0.57733499       0.98266711      -0.26440546       0.11495371      -0.03292758      -0.13907683      -0.00396999      -0.00928353      -0.01023889
Cl       0.90169634      -3.40324658       0.04823136      -0.02489963      -0.06190245       0.02867250       0.00298302      -0.00766322       0.02059906
H       -0.09675420      -0.98120747      -0.78611246       0.16152613       0.98421628       0.82826740       0.00803442      -0.00751329      -0.00402454
H       -0.17686110      -0.57135206       0.95932737      -0.29750572      -0.19084292       0.33821293       0.00145788      -0.00420912      -0.00579310
H        1.82783909       0.85029669       0.74690398       0.47220235       0.90179375       0.95165240      -0.00291592      -0.00524533       0.00938272
H        1.98936778       0.40715491      -0.95435231       0.06124987      -0.08848239       0.33901582      -0.00325514       0.02050384       0.00135400
O       -3.14399944       2.07862985       0.17940902      -0.42289193      -1.51615860       1.19682826       0.02398902       0.04045476       0.00635658
H       -2.89516475       2.77129117      -0.37572002       0.50059803       1.64648928      -1.27183176       0.02804823       0.01287895      -0.02456182
H       -2.44047054       1.43270365       0.09804569      -0.07520945      -0.03801615       0.08115166       0.00926455       0.02199541       0.01706540
O        0.41834179       3.71164980      -0.23234555       0.11106236      -2.46129074      -1.78387672      -0.04567442       0.00140192       0.00151353
H        0.04893894       3.83565487       0.61042141      -0.64325143       0.43438278       1.63500097      -0.00412384      -0.02951754       0.02361454
H        0.23732201       2.73785217      -0.41118775       0.45827764       1.97532684       0.16450302      -0.03099053       0.00143283      -0.01365632
O       -1.35117146      -5.75611060      -0.05216094       0.11227715       0.18225367       0.02743499      -0.00561584      -0.00305274      -0.00242627
H       -0.56084842      -6.27967710      -0.04196221       0.23895920      -0.85772681      -0.02586277      -0.01401706      -0.01513092      -0.00023471
H       -0.92002497      -4.89927257      -0.01060514      -0.35317888       0.69634918      -0.00531933       0.00594475      -0.00877758       0.00331048
O        3.94972150      -4.39112929      -0.07237403      -1.15072210       1.52841919      -0.07960584       0.00617242       0.00085537      -0.00515555
H        3.65935748      -5.28001628       0.03561126      -0.15346514      -0.90446153       0.10666548       0.01727713      -0.00248414       0.00543558
H        3.07963178      -3.89288643      -0.06630715       1.34809151      -0.63300139      -0.02904123       0.00119272      -0.00758699       0.00036207
21
Lattice="1.0 0.0 0.0 0.0 1.0 0.0 0.0 0.0 1.0" Properties=species:S:1:pos:R:3:mp2_forces:R:3:forces:R:3 mp2_energy=-25673.009943776964 energy=-25673.290869049262 free_energy=-25673.290869049262 pbc="F F F"
C        0.44727624      -1.05018618       0.02491472       1.35944681      -0.33724004      -0.25613300       0.00060496      -0.00383666       0.00162078
C        1.75282519      -0.25569241       0.08304030      -1.43320167      -0.22520317      -1.18869716      -0.00226337       0.00070658       0.00098236
H        2.33612494      -0.56515199       0.92035315       0.56991070      -0.04609448       0.68678208      -0.00208332       0.00544334       0.00254102
F       -0.77807512       1.29405852      -0.10056933       0.29836319       0.09156666      -0.08594571      -0.00758369      -0.00905290      -0.02561702
Cl       0.83639698      -2.84669826      -0.17951985      -0.08110623       0.05627404       0.13290341       0.00590412      -0.00202635      -0.00134929
H       -0.16811713      -0.80589972      -0.81477353      -0.25610584       0.32843622      -0.20968833      -0.00162143      -0.00341216       0.00334538
H       -0.08845763      -0.95044743       0.94150614      -0.50249477      -0.04719720       0.46048058       0.00157081      -0.00746596       0.00307034
H        1.39197791       0.76618289       0.14385237       0.22693608       0.28468309       0.20957663      -0.00564594       0.00008646      -0.00325942
H        2.31262591      -0.37564231      -0.84976748       0.06228366      -0.01362290       0.16405427      -0.00100770      -0.00008143       0.00194453
O       -3.23134422       1.93503996       0.15117080      -0.14626021      -1.95118451       1.01517725       0.00790496       0.01944760       0.02138554
H       -3.16410309       2.75380613      -0.25899591       0.07430523       2.07052355      -1.04107685      -0.00037774      -0.00391041      -0.02225462
H       -2.31191613       1.57991045       0.10844506      -0.12053727      -0.05399656       0.05795426       0.00183954       0.00952424       0.01059259
O        0.52862652       3.54680111      -0.28971465      -0.57246027      -2.28104546      -2.31199095      -0.00616415      -0.00801423       0.00303283
H        0.33706427       3.78612614       0.57630985      -0.40215019       0.70279689       2.25770752       0.01193202      -0.02989676       0.01390913
H        0.00366248       2.65123766      -0.37934167       0.90655155       1.36534429       0.11222058      -0.00869057      -0.00461210      -0.00876208
O       -1.26777478      -5.66128007      -0.08652742       1.29303326      -1.36823151       0.06334137       0.00082336       0.00370288      -0.00129028
H       -0.30316460      -5.76858969      -0.04902008      -0.66106867      -0.38958261      -0.02215825       0.00271934       0.01528790       0.00387043
H       -1.32235007      -4.73274231      -0.09439095      -0.63463803       1.79702955      -0.04420564      -0.00999021       0.00286524      -0.00412742
O        3.92522909      -4.35838397      -0.03130157       0.30664280       1.60834773      -0.07975511       0.00395456       0.00251521      -0.00071240
H        3.28252971      -5.03222510       0.00973557      -0.84784243      -1.27787096       0.07834602      -0.00078105       0.00709010       0.00371286
H        3.38155088      -3.55443736      -0.06415554       0.56039228      -0.31373261       0.00110702       0.00895547       0.00563942      -0.00263526
21
Lattice="1.0 0.0 0.0 0.0 1.0 0.0 0.0 0.0 1.0" Properties=species:S:1:pos:R:3:mp2_forces:R:3:forces:R:3 mp2_energy=-25673.659823327842 energy=-25674.00000887593 free_energy=-25674.00000887593 pbc="F F F"
C        0.16425190      -0.23744083      -0.00594574       0.40923255      -0.46109575      -0.71280310       0.00177141      -0.00466653      -0.00515134
C        1.65786885       0.04989959       0.04829622      -1.79739659       2.17522489      -1.95656188      -0.00070580       0.00362097      -0.00222587
H        2.12884502      -0.83103908       0.29531373       1.31598128      -2.01801916       0.52377604       0.00513300       0.00198689      -0.01552557
F       -0.52253139       0.98725852      -0.27617280      -0.15326615       0.10614664      -0.10373525      -0.00396999      -0.00928353      -0.01023889
Cl       0.88035045      -3.39812277       0.06603070      -0.00163041       0.03318830       0.01952285       0.00298302      -0.00766322       0.02059906
H       -0.12432979      -0.96732232      -0.79173787       0.32269966       0.64895419       0.52537668       0.00803442      -0.00751329      -0.00402454
H       -0.20821222      -0.59227215       0.93582921      -0.21787172      -0.17018008       0.47661892       0.00145788      -0.00420912      -0.00579310
H        1.85138941       0.83626199       0.77048058       0.13028173       0.11234585       0.17575588      -0.00291592      -0.00524533       0.00938272
H        1.97112323       0.40914994      -0.97224660      -0.03547386      -0.38274481       1.02944669      -0.00325514       0.02050384       0.00135400
O       -3.18200495       2.04314853       0.22605386       1.09068096       0.80169445      -1.07294172       0.02398902       0.04045476       0.00635658
H       -2.91052522       2.80320356      -0.34329173      -0.52492323      -0.96956359       0.83681833       0.02804823       0.01287895      -0.02456182
H       -2.45139373       1.41659034       0.09028165      -0.49927801       0.23140653       0.23452439       0.00926455       0.02199541       0.01706540
O        0.44388042       3.68151247      -0.22969072       0.82452795      -1.61658095      -2.75618312      -0.04567442       0.00140192       0.00151353
H        0.09174878       3.85825850       0.59105845      -1.10224461       0.60804773       2.67071495      -0.00412384      -0.02951754       0.02361454
H        0.26767746       2.73114579      -0.39031449       0.22086688       0.98583948       0.10399639      -0.03099053       0.00143283      -0.01365632
O       -1.31458551      -5.75102140      -0.03135496      -1.00649541      -1.34569758      -0.06120941      -0.00561584      -0.00305274      -0.00242627
H       -0.57468168      -6.35258098      -0.04512699       0.16937400       0.22248970       0.00847808      -0.01401706      -0.01513092      -0.00023471
H       -0.95330646      -4.88496591       0.01063369       0.81030996       1.07250255       0.04909432       0.00594475      -0.00877758       0.00331048
O        3.92280184      -4.41584158      -0.02465594       1.81952133       2.39013134      -0.18085472       0.00617242       0.00085537      -0.00515555
H        3.64600757      -5.28275472       0.02300831      -1.10305603      -2.45514082       0.15273327       0.01727713      -0.00248414       0.00543558
H        3.14732075      -3.86394891      -0.04283481      -0.67184026       0.03105111       0.03743242       0.00119272      -0.00758699       0.00036207
21
Lattice="1.0 0.0 0.0 0.0 1.0 0.0 0.0 0.0 1.0" Properties=species:S:1:pos:R:3:mp2_forces:R:3:forces:R:3 mp2_energy=-25672.940589014717 energy=-25673.290869049262 free_energy=-25673.290869049262 pbc="F F F"
C        0.45565964      -1.06952531       0.01918814       0.11196243       0.10547741      -0.59012712       0.00060496      -0.00383666       0.00162078
C        1.75407074      -0.28820419       0.08760936      -2.10742747       1.15783927      -2.46852109      -0.00226337       0.00070658       0.00098236
H        2.32646127      -0.53466561       0.90834197       1.47146917      -0.76350164       1.79493698      -0.00208332       0.00544334       0.00254102
F       -0.72327152       1.29864993      -0.11233667      -0.17892227       0.06664044      -0.05707534      -0.00758369      -0.00905290      -0.02561702
Cl       0.81505109      -2.84157445      -0.16172051       0.02343660      -0.38846277      -0.01561415       0.00590412      -0.00202635      -0.00134929
H       -0.19569272      -0.79201457      -0.82039894       0.52941753       0.05561491       0.40930362      -0.00162143      -0.00341216       0.00334538
H       -0.11980875      -0.97136752       0.91800798      -0.23222808       0.06303511       0.42149502       0.00157081      -0.00746596       0.00307034
H        1.41552823       0.75214819       0.16742897       0.11781640      -0.12897427       0.01404427      -0.00564594       0.00008646      -0.00325942
H        2.29438136      -0.37364728      -0.86766177       0.09836051      -0.11400920       0.43529855      -0.00100770      -0.00008143       0.00194453
O       -3.26934973       1.89955864       0.19781564       1.25384414       1.09573807      -0.84813915       0.00790496       0.01944760       0.02138554
H       -3.17946356       2.78571852      -0.22656762      -0.33288440      -1.17770708       0.60658800      -0.00037774      -0.00391041      -0.02225462
H       -2.32283932       1.56379714       0.10068102      -0.79853413       0.06864214       0.27001500       0.00183954       0.00952424       0.01059259
O        0.55416515       3.51666378      -0.28705982      -0.01094417      -1.75572060      -2.80791443      -0.00616415      -0.00801423       0.00303283
H        0.37987411       3.80872977       0.55694689      -0.52847362       0.92066472       2.74276462       0.01193202      -0.02989676       0.01390913
H        0.03401793       2.64453128      -0.35846841       0.57516246       0.77460396       0.09317662      -0.00869057      -0.00461210      -0.00876208
O       -1.23118883      -5.65619087      -0.06572144      -1.50673172      -0.63197298      -0.01532823       0.00082336       0.00370288      -0.00129028
H       -0.31699786      -5.84149357      -0.05218486       1.26347672       0.07627820       0.01955541       0.00271934       0.01528790       0.00387043
H       -1.35563156      -4.71843565      -0.07315212       0.23753045       0.56792430      -0.00580174      -0.00999021       0.00286524      -0.00412742
O        3.89830943      -4.38309626       0.01641652       2.22604518       2.85058113       0.03941086       0.00395456       0.00251521      -0.00071240
H        3.26917980      -5.03496354      -0.00286738      -2.35219230      -2.09553638      -0.07653052      -0.00078105       0.00709010       0.00371286
H        3.44923985      -3.52549984      -0.04068320       0.13981657      -0.74715475       0.03846282       0.00895547       0.00563942      -0.00263526
21
Lattice="1.0 0.0 0.0 0.0 1.0 0.0 0.0 0.0 1.0" Properties=species:S:1:pos:R:3:mp2_forces:R:3:forces:R:3 mp2_energy=-25673.744876021592 energy=-25674.00000887593 free_energy=-25674.00000887593 pbc="F F F"
C        0.12171884      -0.20464799       0.00052211       1.86789808      -0.70698876      -0.35425332       0.00177141      -0.00466653      -0.00515134
C        1.62279769       0.07834478       0.00623656       0.42787246      -0.36512127       1.06225494      -0.00070580       0.00362097      -0.00222587
H        2.16521355      -0.86886034       0.27801301      -0.62168616       0.93597230      -0.19846415       0.00513300       0.00198689      -0.01552557
F       -0.54906980       0.98315591      -0.30211625      -0.66972880       0.64614233      -0.11096205      -0.00396999      -0.00928353      -0.01023889
Cl       0.89547747      -3.38032293       0.05739020       0.01076534      -0.03297123       0.03905311       0.00298302      -0.00766322       0.02059906
H       -0.07930507      -0.93825868      -0.77464623      -0.40549361       0.02454041       0.11051255       0.00803442      -0.00751329      -0.00402454
H       -0.20349689      -0.56470984       0.97080916      -0.22306127       0.00498564       0.01579091       0.00145788      -0.00420912      -0.00579310
H        1.86197282       0.87595095       0.74447101      -0.10951783      -0.50802674      -0.31309200      -0.00291592      -0.00524533       0.00938272
H        2.01085028       0.41373516      -0.95440143      -0.25685241      -0.02242549      -0.22349967      -0.00325514       0.02050384       0.00135400
O       -3.15288412       2.08909202       0.17888510      -1.11937719      -1.40110388       1.63164562       0.02398902       0.04045476       0.00635658
H       -2.91674587       2.77849470      -0.37880637       0.77573217       1.61772924      -1.47613785       0.02804823       0.01287895      -0.02456182
H       -2.47625266       1.42483468       0.14013008       0.38438711      -0.13266718      -0.17239916       0.00926455       0.02199541       0.01706540
O        0.47091441       3.65883003      -0.24608896      -0.18439461       0.96968271       0.66505806      -0.04567442       0.00140192       0.00151353
H        0.05200030       3.86563105       0.59861917       0.23789176       0.00816197      -0.36077328      -0.00412384      -0.02951754       0.02361454
H        0.29172266       2.74324064      -0.37543824      -0.10732512      -0.98785562      -0.29800424      -0.03099053       0.00143283      -0.01365632
O       -1.31356923      -5.72956616      -0.08121639       0.34419127       0.53220533       0.10669750      -0.00561584      -0.00305274      -0.00242627
H       -0.54364957      -6.30928411      -0.03292856      -0.27085901       0.50836200      -0.02126109      -0.01401706      -0.01513092      -0.00023471
H       -0.94681253      -4.81648840      -0.01419973      -0.08914990      -1.09654047      -0.10111832       0.00594475      -0.00877758       0.00331048
O        3.98046869      -4.35936811      -0.04540608      -1.27385290      -2.12026488       0.15609220       0.00617242       0.00085537      -0.00515555
H        3.64074708      -5.31126788       0.01406071       0.89981368       2.21759669      -0.14063806       0.01727713      -0.00248414       0.00543558
H        3.13678189      -3.86684635      -0.03326744       0.38274695      -0.09141306      -0.01650171       0.00119272      -0.00758699       0.00036207
21
Lattice="1.0 0.0 0.0 0.0 1.0 0.0 0.0 0.0 1.0" Properties=species:S:1:pos:R:3:mp2_forces:R:3:forces:R:3 mp2_energy=-25673.029532383218 energy=-25673.290869049262 free_energy=-25673.290869049262 pbc="F F F"
C        0.41312658      -1.03673247       0.02565599       2.25224867      -0.53124528       0.54806196       0.00060496      -0.00383666       0.00162078
C        1.71899958      -0.25975900       0.04554970       0.14985320       0.19290046       0.70415007      -0.00226337       0.00070658       0.00098236
H        2.36282980      -0.57248687       0.89104125      -0.37663765       0.22501187      -0.21258663      -0.00208332       0.00544334       0.00254102
F       -0.74980993       1.29454732      -0.13828012      -0.02022822       0.01018615       0.07809099      -0.00758369      -0.00905290      -0.02561702
Cl       0.83017811      -2.82377461      -0.17036101      -0.20162178      -0.00396243       0.04932996       0.00590412      -0.00202635      -0.00134929
H       -0.15066800      -0.76295093      -0.80330730      -1.22536454       0.40664744      -1.14746205      -0.00162143      -0.00341216       0.00334538
H       -0.11509342      -0.94380521       0.95298793      -0.36761740       0.04473398       0.23486485       0.00157081      -0.00746596       0.00307034
H        1.42611164       0.79183715       0.14141940       0.10819839      -0.19310759       0.04154354      -0.00564594       0.00008646      -0.00325942
H        2.33410841      -0.36906206      -0.84981660      -0.32132874      -0.15288148      -0.20611569      -0.00100770      -0.00008143       0.00194453
O       -3.24022890       1.94550213       0.15064688      -0.99169363      -1.98676301       1.32741520       0.00790496       0.01944760       0.02138554
H       -3.18568421       2.76100966      -0.26208226       0.32489785       2.06843507      -1.13747344      -0.00037774      -0.00391041      -0.02225462
H       -2.34769825       1.57204148       0.15052945       0.65421910      -0.03321452      -0.24140338       0.00183954       0.00952424       0.01059259
O        0.58119914       3.49398134      -0.30345806      -0.19660774      -0.01537343       0.23615113      -0.00616415      -0.00801423       0.00303283
H        0.34012563       3.81610232       0.56450761       0.15055397       0.17841249       0.06499724       0.01193202      -0.02989676       0.01390913
H        0.05806313       2.65662613      -0.34359216       0.06583585      -0.24004362      -0.33305290      -0.00869057      -0.00461210      -0.00876208
O       -1.23017255      -5.63473563      -0.11558287      -0.18141977       1.32993173       0.04195572       0.00082336       0.00370288      -0.00129028
H       -0.28596575      -5.79819670      -0.03998643      -0.25719657       0.29774017      -0.01493121       0.00271934       0.01528790       0.00387043
H       -1.34913763      -4.64995814      -0.09798554       0.42951818      -1.61947726      -0.03205877      -0.00999021       0.00286524      -0.00412742
O        3.95597628      -4.32662279      -0.00433362      -1.42002724      -2.12805217      -0.00115643       0.00395456       0.00251521      -0.00071240
H        3.26391931      -5.06347670      -0.01181498       1.65009240       1.75110914       0.01769756      -0.00078105       0.00709010       0.00371286
H        3.43870099      -3.52839728      -0.03111583      -0.22567433       0.39901231      -0.01801771       0.00895547       0.00563942      -0.00263526
21
Lattice="1.0 0.0 0.0 0.0 1.0 0.0 0.0 0.0 1.0" Properties=species:S:1:pos:R:3:mp2_forces:R:3:forces:R:3 mp2_energy=-25673.75470703394 energy=-25674.00000887593 free_energy=-25674.00000887593 pbc="F F F"
C        0.18650487      -0.26654176      -0.02319891      -0.20006768       0.99321910       0.98044749       0.00177141      -0.00466653      -0.00515134
C        1.67925917       0.04031537       0.02173778      -2.36820352       2.38406319      -0.21150787      -0.00070580       0.00362097      -0.00222587
H        2.13666935      -0.85651314       0.26071642       1.34386915      -1.68605252       0.54167895       0.00513300       0.00198689      -0.01552557
F       -0.54030868       0.99288081      -0.24979871       0.41410291      -0.54148460      -0.19633894      -0.00396999      -0.00928353      -0.01023889
Cl       0.85720254      -3.39599746       0.06119274       0.07367389      -0.02912999       0.01689996       0.00298302      -0.00766322       0.02059906
H       -0.10498377      -0.94720735      -0.80217819      -0.07369278      -0.14186702      -0.25953094       0.00803442      -0.00751329      -0.00402454
H       -0.20976255      -0.59270710       0.94767614       0.28140251      -0.17916935      -0.41418268       0.00145788      -0.00420912      -0.00579310
H        1.82826117       0.85716049       0.76735930       0.21341782      -0.74049048      -0.44090091      -0.00291592      -0.00524533       0.00938272
H        1.95949696       0.40735409      -0.96338461       0.37499899      -0.04651315      -0.03717506      -0.00325514       0.02050384       0.00135400
O       -3.17127662       2.09752570       0.23343585       1.18054517      -0.10979836      -0.89759959       0.02398902       0.04045476       0.00635658
H       -2.92677996       2.81448575      -0.38591605      -0.23863133      -0.75049941       0.65564054       0.02804823       0.01287895      -0.02456182
H       -2.48119748       1.40748565       0.08665986      -0.85498915       0.93933119       0.25110104       0.00926455       0.02199541       0.01706540